TITLE = "B00018"
VARIABLES = "x", "y", "Vx", "Vy", "isValid"
ZONE T="Frame 0", I=51, J=39, F=POINT
-25.4126843214 36.5751847029 10.065030328 0.3023188145 1
-21.612652421 36.5751847029 10.0826029246 0.2560657016 1
-17.8126205206 36.5751847029 10.1002195629 0.3430698737 1
-14.0125886202 36.5751847029 10.2365062805 0.4064268549 1
-10.2125567198 36.5751847029 10.2454687452 0.2612846306 1
-6.4125248194 36.5751847029 0 -0 0
-2.612492919 36.5751847029 0 -0 0
1.1875389814 36.5751847029 0 -0 0
4.9875708818 36.5751847029 0 -0 0
8.7876027822 36.5751847029 0 -0 0
12.5876346827 36.5751847029 0 -0 0
16.3876665831 36.5751847029 10.3920580505 0.2272216022 1
20.1876984835 36.5751847029 10.4907741412 0.3255019958 1
23.9877303839 36.5751847029 10.4939042404 0.0974058533 1
27.7877622843 36.5751847029 10.4340013787 0.3496713943 1
31.5877941847 36.5751847029 10.4359329172 0.2308204298 1
35.3878260851 36.5751847029 10.5877474432 0.310074854 1
39.1878579855 36.5751847029 10.5454045948 0.2879974313 1
42.9878898859 36.5751847029 10.5571731383 0.2642967612 1
46.7879217863 36.5751847029 10.6346360134 -0.0291319426 1
50.5879536867 36.5751847029 10.5911638127 0.0373582835 1
54.3879855871 36.5751847029 10.573298654 0.0059912299 1
58.1880174875 36.5751847029 10.4033484281 -0.0301622013 1
61.9880493879 36.5751847029 10.5993838619 0.1900850996 1
65.7880812883 36.5751847029 10.4413374502 -0.0365907014 1
69.5881131887 36.5751847029 10.4646071418 0.0057474282 1
73.3881450891 36.5751847029 10.4479311062 -0.0474658297 1
77.1881769896 36.5751847029 10.3208522278 -0.1443887984 1
80.98820889 36.5751847029 10.3306735036 -0.2006157597 1
84.7882407904 36.5751847029 10.4067962559 -0.2819873264 1
88.5882726908 36.5751847029 0 -0 0
92.3883045912 36.5751847029 0 -0 0
96.1883364916 36.5751847029 0 -0 0
99.988368392 36.5751847029 0 -0 0
103.7884002924 36.5751847029 10.301854571 -0.2535742056 1
107.5884321928 36.5751847029 10.2054443723 -0.1316938084 1
111.3884640932 36.5751847029 10.2237939885 -0.1250671212 1
115.1884959936 36.5751847029 10.1226650475 -0.2263911036 1
118.988527894 36.5751847029 10.0074616708 -0.2039880876 1
122.7885597944 36.5751847029 10.11074865 -0.1407333459 1
126.5885916948 36.5751847029 10.2354272614 -0.1679447604 1
130.3886235952 36.5751847029 10.1287931209 -0.1314751734 1
134.1886554956 36.5751847029 10.2258230478 -0.2304350658 1
137.988687396 36.5751847029 10.1298689942 0.0076427898 1
141.7887192965 36.5751847029 10.1480455899 -0.0988655176 1
145.5887511969 36.5751847029 10.1746498595 -0.2572265122 1
149.3887830973 36.5751847029 10.0850535248 -0.1202980455 1
153.1888149977 36.5751847029 10.0863055645 -0.0445921156 1
156.9888468981 36.5751847029 10.0330907336 -0.1161219585 1
160.7888787985 36.5751847029 9.903929317 -0.1120386735 1
164.5889106989 36.5751847029 0 -0 0
-25.4126843214 32.7751528025 9.9995939543 0.1961927252 1
-21.612652421 32.7751528025 10.0554166768 0.2802303813 1
-17.8126205206 32.7751528025 10.3098166623 0.4411945488 1
-14.0125886202 32.7751528025 10.0597830864 0.3583302866 1
-10.2125567198 32.7751528025 10.2461671191 0.3869180009 1
-6.4125248194 32.7751528025 0 -0 0
-2.612492919 32.7751528025 0 -0 0
1.1875389814 32.7751528025 0 -0 0
4.9875708818 32.7751528025 0 -0 0
8.7876027822 32.7751528025 0 -0 0
12.5876346827 32.7751528025 0 -0 0
16.3876665831 32.7751528025 10.3394314895 0.4862160699 1
20.1876984835 32.7751528025 10.5191620955 0.3755725713 1
23.9877303839 32.7751528025 10.5767873775 0.2082459662 1
27.7877622843 32.7751528025 10.5306097645 0.3091248139 1
31.5877941847 32.7751528025 10.5270707077 0.2519493853 1
35.3878260851 32.7751528025 10.5413873721 0.3263435049 1
39.1878579855 32.7751528025 10.5343407168 -0.0159446305 1
42.9878898859 32.7751528025 10.5933249967 -0.2086218927 1
46.7879217863 32.7751528025 10.5994687993 0.2102781712 1
50.5879536867 32.7751528025 10.5678249128 0.0521248013 1
54.3879855871 32.7751528025 10.6201463284 -0.1784345247 1
58.1880174875 32.7751528025 10.3670675908 -0.1350598447 1
61.9880493879 32.7751528025 10.4802293249 0.0140775815 1
65.7880812883 32.7751528025 10.3717171249 -0.0234663059 1
69.5881131887 32.7751528025 10.5663212069 -0.2151133093 1
73.3881450891 32.7751528025 10.6024982319 0.0516576458 1
77.1881769896 32.7751528025 10.437200686 -0.2723610919 1
80.98820889 32.7751528025 10.1863837989 -0.099334246 1
84.7882407904 32.7751528025 10.3578597515 -0.1818477484 1
88.5882726908 32.7751528025 10.2785251086 -0.3057068715 1
92.3883045912 32.7751528025 0 -0 0
96.1883364916 32.7751528025 0 -0 0
99.988368392 32.7751528025 0 -0 0
103.7884002924 32.7751528025 10.1999108604 -0.189638392 1
107.5884321928 32.7751528025 10.0934371571 -0.1747680619 1
111.3884640932 32.7751528025 10.2204782856 -0.0458803322 1
115.1884959936 32.7751528025 10.0764811428 -0.1068118798 1
118.988527894 32.7751528025 10.0551838855 -0.0900571985 1
122.7885597944 32.7751528025 10.0846414213 -0.0497103782 1
126.5885916948 32.7751528025 10.1722086967 -0.1976398062 1
130.3886235952 32.7751528025 10.1323321777 -0.0969292603 1
134.1886554956 32.7751528025 10.0388444535 -0.2099824634 1
137.988687396 32.7751528025 10.0987378778 -0.0963866049 1
141.7887192965 32.7751528025 10.0558099053 -0.0780511449 1
145.5887511969 32.7751528025 10.218546747 -0.0636007828 1
149.3887830973 32.7751528025 9.9923302369 0.0547028076 1
153.1888149977 32.7751528025 10.1858458622 -0.1526843475 1
156.9888468981 32.7751528025 10.0776671201 -0.1917366595 1
160.7888787985 32.7751528025 10.1996120067 -0.0376020852 1
164.5889106989 32.7751528025 0 -0 0
-25.4126843214 28.9751209021 10.0844117759 0.3699431116 1
-21.612652421 28.9751209021 10.0296712183 0.3807820629 1
-17.8126205206 28.9751209021 10.1673326629 0.3950248003 1
-14.0125886202 28.9751209021 10.1509712102 0.4986829873 1
-10.2125567198 28.9751209021 10.2749608852 0.3117452888 1
-6.4125248194 28.9751209021 0 -0 0
-2.612492919 28.9751209021 0 -0 0
1.1875389814 28.9751209021 0 -0 0
4.9875708818 28.9751209021 0 -0 0
8.7876027822 28.9751209021 0 -0 0
12.5876346827 28.9751209021 0 -0 0
16.3876665831 28.9751209021 10.6033507513 0.3899851835 1
20.1876984835 28.9751209021 10.5414565803 0.2958415541 1
23.9877303839 28.9751209021 10.8108338542 0.0603322673 1
27.7877622843 28.9751209021 10.537304087 0.2891267836 1
31.5877941847 28.9751209021 10.6391502769 0.1623876547 1
35.3878260851 28.9751209021 10.5510073149 0.3240313211 1
39.1878579855 28.9751209021 10.6002300897 0.2367455973 1
42.9878898859 28.9751209021 10.5478866533 0.0103749416 1
46.7879217863 28.9751209021 10.6780075476 0.1348081784 1
50.5879536867 28.9751209021 10.5495193382 -0.0180916583 1
54.3879855871 28.9751209021 10.6868662 -0.0052031999 1
58.1880174875 28.9751209021 10.421613107 -0.0238516699 1
61.9880493879 28.9751209021 10.3543584446 -0.035425172 1
65.7880812883 28.9751209021 10.420641046 0.0188608133 1
69.5881131887 28.9751209021 10.5579061163 -0.2365930246 1
73.3881450891 28.9751209021 10.5303140566 -0.229588838 1
77.1881769896 28.9751209021 10.371276709 -0.1759084246 1
80.98820889 28.9751209021 10.3954838574 -0.3034245731 1
84.7882407904 28.9751209021 10.4809654487 -0.1675342298 1
88.5882726908 28.9751209021 10.3968019595 -0.380524105 1
92.3883045912 28.9751209021 0 -0 0
96.1883364916 28.9751209021 0 -0 0
99.988368392 28.9751209021 0 -0 0
103.7884002924 28.9751209021 10.1338673419 -0.1054764757 1
107.5884321928 28.9751209021 10.1444782206 -0.1879317802 1
111.3884640932 28.9751209021 10.1509586269 -0.2670572255 1
115.1884959936 28.9751209021 10.0596887116 -0.1907724631 1
118.988527894 28.9751209021 10.1049194303 -0.1004368588 1
122.7885597944 28.9751209021 10.0666913253 -0.1938962706 1
126.5885916948 28.9751209021 10.2517320893 -0.1390959423 1
130.3886235952 28.9751209021 9.9562758992 -0.2275204559 1
134.1886554956 28.9751209021 10.1723534048 -0.296118387 1
137.988687396 28.9751209021 10.1165149532 -0.0975694364 1
141.7887192965 28.9751209021 10.1602356744 -0.1492695509 1
145.5887511969 28.9751209021 10.1157631003 -0.1954974972 1
149.3887830973 28.9751209021 10.2299692494 -0.0604958503 1
153.1888149977 28.9751209021 9.9896814495 -0.0223338077 1
156.9888468981 28.9751209021 10.2843480367 -0.2205414359 1
160.7888787985 28.9751209021 10.1491560673 -0.0849798317 1
164.5889106989 28.9751209021 0 -0 0
-25.4126843214 25.1750890017 10.0131870782 0.3798571894 1
-21.612652421 25.1750890017 10.1709755321 0.308462617 1
-17.8126205206 25.1750890017 9.8918367531 0.3461103167 1
-14.0125886202 25.1750890017 10.0521292863 0.3928919288 1
-10.2125567198 25.1750890017 10.2372958834 0.602949892 1
-6.4125248194 25.1750890017 9.9813701712 0.4343712473 1
-2.612492919 25.1750890017 0 -0 0
1.1875389814 25.1750890017 0 -0 0
4.9875708818 25.1750890017 0 -0 0
8.7876027822 25.1750890017 0 -0 0
12.5876346827 25.1750890017 0 -0 0
16.3876665831 25.1750890017 10.5765451487 0.4602897263 1
20.1876984835 25.1750890017 10.5775832721 0.3643325269 1
23.9877303839 25.1750890017 10.6695169571 0.2952060968 1
27.7877622843 25.1750890017 10.6364102605 0.16328107 1
31.5877941847 25.1750890017 10.765062053 0.3560165299 1
35.3878260851 25.1750890017 10.841427034 0.292948965 1
39.1878579855 25.1750890017 10.8224608354 0.0287292766 1
42.9878898859 25.1750890017 10.7150622586 -0.1725502529 1
46.7879217863 25.1750890017 10.7172800676 0.1026106262 1
50.5879536867 25.1750890017 10.59590143 -0.1415245217 1
54.3879855871 25.1750890017 10.6804424186 -0.2536198201 1
58.1880174875 25.1750890017 10.6256389445 0.1883313004 1
61.9880493879 25.1750890017 10.6180166027 -0.0201647591 1
65.7880812883 25.1750890017 10.5642418144 0.0775541041 1
69.5881131887 25.1750890017 10.6894740916 -0.2856050289 1
73.3881450891 25.1750890017 10.4995258355 -0.1074630662 1
77.1881769896 25.1750890017 10.4279110551 -0.2827659189 1
80.98820889 25.1750890017 10.4268005778 -0.2216125905 1
84.7882407904 25.1750890017 10.3309471907 -0.2850938318 1
88.5882726908 25.1750890017 10.4840672354 -0.2390058749 1
92.3883045912 25.1750890017 0 -0 0
96.1883364916 25.1750890017 0 -0 0
99.988368392 25.1750890017 0 -0 0
103.7884002924 25.1750890017 10.1551520159 -0.1340799192 1
107.5884321928 25.1750890017 10.0900994334 -0.3164168438 1
111.3884640932 25.1750890017 10.1355660892 -0.223581879 1
115.1884959936 25.1750890017 10.2809568338 -0.2554617025 1
118.988527894 25.1750890017 10.0517769535 -0.1749835511 1
122.7885597944 25.1750890017 10.2457267032 -0.1636601423 1
126.5885916948 25.1750890017 10.2410079608 -0.4180270966 1
130.3886235952 25.1750890017 10.0700196116 -0.1391148173 1
134.1886554956 25.1750890017 9.923345369 -0.101624409 1
137.988687396 25.1750890017 9.9878788899 -0.0626287219 1
141.7887192965 25.1750890017 10.0608337931 0.0270037898 1
145.5887511969 25.1750890017 10.0413862828 -0.1651009316 1
149.3887830973 25.1750890017 9.9917356753 -0.0349234124 1
153.1888149977 25.1750890017 10.1313003461 -0.0088146108 1
156.9888468981 25.1750890017 10.0837700269 -0.0605619127 1
160.7888787985 25.1750890017 10.0025824912 -0.0543426103 1
164.5889106989 25.1750890017 0 -0 0
-25.4126843214 21.3750571012 9.9169247335 0.3884437276 1
-21.612652421 21.3750571012 10.0852076704 0.3892632159 1
-17.8126205206 21.3750571012 10.0642753292 0.413696864 1
-14.0125886202 21.3750571012 10.0423174479 0.3445468401 1
-10.2125567198 21.3750571012 10.0927828249 0.5366248219 1
-6.4125248194 21.3750571012 10.206658662 0.451155814 1
-2.612492919 21.3750571012 0 -0 0
1.1875389814 21.3750571012 0 -0 0
4.9875708818 21.3750571012 0 -0 0
8.7876027822 21.3750571012 0 -0 0
12.5876346827 21.3750571012 0 -0 0
16.3876665831 21.3750571012 10.5518441052 0.5674098973 1
20.1876984835 21.3750571012 10.8497540414 0.3742670526 1
23.9877303839 21.3750571012 10.6898484451 0.2725466958 1
27.7877622843 21.3750571012 10.8104374798 0.2252444492 1
31.5877941847 21.3750571012 10.8382560391 0.2885212117 1
35.3878260851 21.3750571012 10.736523099 0.2717618117 1
39.1878579855 21.3750571012 10.6979552446 -0.1567393201 1
42.9878898859 21.3750571012 10.630392291 -0.1171978318 1
46.7879217863 21.3750571012 10.5809556 -0.0212909657 1
50.5879536867 21.3750571012 10.6498398013 0.1255059642 1
54.3879855871 21.3750571012 10.679391712 0.1200369418 1
58.1880174875 21.3750571012 10.6229052198 -0.2323980626 1
61.9880493879 21.3750571012 10.590021877 -0.2475357882 1
65.7880812883 21.3750571012 10.5661922279 -0.1917523886 1
69.5881131887 21.3750571012 10.6378982373 -0.3167817599 1
73.3881450891 21.3750571012 10.4799304712 -0.261754932 1
77.1881769896 21.3750571012 10.320207333 -0.0091637977 1
80.98820889 21.3750571012 10.4599576076 -0.2248417832 1
84.7882407904 21.3750571012 10.5636944403 -0.3530012535 1
88.5882726908 21.3750571012 10.3984723943 -0.2522765514 1
92.3883045912 21.3750571012 0 -0 0
96.1883364916 21.3750571012 0 -0 0
99.988368392 21.3750571012 0 -0 0
103.7884002924 21.3750571012 10.2126168607 -0.3073615772 1
107.5884321928 21.3750571012 10.2680054589 -0.4100492761 1
111.3884640932 21.3750571012 10.1296833903 -0.2887398468 1
115.1884959936 21.3750571012 10.1150206848 -0.3065688284 1
118.988527894 21.3750571012 10.1770123765 -0.3380444131 1
122.7885597944 21.3750571012 10.003740156 -0.1546819484 1
126.5885916948 21.3750571012 10.1996340275 0.0628174716 1
130.3886235952 21.3750571012 10.1009619783 -0.2608630897 1
134.1886554956 21.3750571012 10.0368877483 -0.1604718453 1
137.988687396 21.3750571012 9.9248742415 -0.1093584278 1
141.7887192965 21.3750571012 10.0813288642 -0.1414191365 1
145.5887511969 21.3750571012 10.0168299474 -0.0491504207 1
149.3887830973 21.3750571012 10.2051738311 -0.1117461114 1
153.1888149977 21.3750571012 9.7468297995 -0.1969021095 1
156.9888468981 21.3750571012 10.1796108306 -0.0424844106 1
160.7888787985 21.3750571012 10.1566148261 -0.1760893097 1
164.5889106989 21.3750571012 0 -0 0
-25.4126843214 17.5750252008 9.9385271362 0.46188938 1
-21.612652421 17.5750252008 10.0811526978 0.4003097918 1
-17.8126205206 17.5750252008 9.9183309187 0.4150637263 1
-14.0125886202 17.5750252008 10.0090849182 0.3366948528 1
-10.2125567198 17.5750252008 9.850569778 0.3952623104 1
-6.4125248194 17.5750252008 10.0976745878 0.6197344587 1
-2.612492919 17.5750252008 0 -0 0
1.1875389814 17.5750252008 0 -0 0
4.9875708818 17.5750252008 0 -0 0
8.7876027822 17.5750252008 0 -0 0
12.5876346827 17.5750252008 0 -0 0
16.3876665831 17.5750252008 10.6558609166 0.6291782352 1
20.1876984835 17.5750252008 10.5873007356 0.6426345155 1
23.9877303839 17.5750252008 10.7224612467 0.4266010515 1
27.7877622843 17.5750252008 10.7396594898 0.4982394255 1
31.5877941847 17.5750252008 10.7770854086 0.0976197696 1
35.3878260851 17.5750252008 10.8048504888 0.3086529397 1
39.1878579855 17.5750252008 10.743758504 0.0037451085 1
42.9878898859 17.5750252008 10.9002445849 -0.1046617062 1
46.7879217863 17.5750252008 10.7355793505 -0.0845866031 1
50.5879536867 17.5750252008 10.7257989705 -0.1410416371 1
54.3879855871 17.5750252008 10.5339758007 -0.2234230146 1
58.1880174875 17.5750252008 10.7349501849 -0.3670646788 1
61.9880493879 17.5750252008 10.5189544708 -0.3095274799 1
65.7880812883 17.5750252008 10.6839846213 -0.2569308043 1
69.5881131887 17.5750252008 10.6826098943 -0.2957707729 1
73.3881450891 17.5750252008 10.6107245728 -0.2940562965 1
77.1881769896 17.5750252008 10.4957854457 -0.2639349909 1
80.98820889 17.5750252008 10.3667655913 -0.4316674079 1
84.7882407904 17.5750252008 10.3907399484 -0.2699938562 1
88.5882726908 17.5750252008 10.4961597992 -0.3565167166 1
92.3883045912 17.5750252008 10.2232875102 -0.3099757604 1
96.1883364916 17.5750252008 0 -0 0
99.988368392 17.5750252008 0 -0 0
103.7884002924 17.5750252008 10.0984327324 -0.1867882716 1
107.5884321928 17.5750252008 10.2047585817 -0.3134880777 1
111.3884640932 17.5750252008 10.078878264 -0.199712907 1
115.1884959936 17.5750252008 10.0668045751 -0.333613514 1
118.988527894 17.5750252008 10.1276983727 -0.3417407613 1
122.7885597944 17.5750252008 10.0048034459 -0.2149229867 1
126.5885916948 17.5750252008 10.1069484895 -0.1761632367 1
130.3886235952 17.5750252008 10.0844684008 -0.3618253018 1
134.1886554956 17.5750252008 10.0672795952 -0.1890076535 1
137.988687396 17.5750252008 9.9866016836 -0.2396775092 1
141.7887192965 17.5750252008 10.2376104663 -0.1890595596 1
145.5887511969 17.5750252008 9.9405782162 -0.1597687527 1
149.3887830973 17.5750252008 10.1003516876 0.1015552008 1
153.1888149977 17.5750252008 10.0635738095 0.0340913408 1
156.9888468981 17.5750252008 10.1831656166 0.1003000153 1
160.7888787985 17.5750252008 9.8395530875 0.0913690089 1
164.5889106989 17.5750252008 0 -0 0
-25.4126843214 13.7749933004 9.9915532173 0.459031395 1
-21.612652421 13.7749933004 9.9974264787 0.3664653985 1
-17.8126205206 13.7749933004 9.9499873885 0.3847285044 1
-14.0125886202 13.7749933004 10.1516003758 0.4507846062 1
-10.2125567198 13.7749933004 10.0530950555 0.6407249978 1
-6.4125248194 13.7749933004 10.0977846918 0.6055121692 1
-2.612492919 13.7749933004 0 -0 0
1.1875389814 13.7749933004 0 -0 0
4.9875708818 13.7749933004 0 -0 0
8.7876027822 13.7749933004 0 -0 0
12.5876346827 13.7749933004 0 -0 0
16.3876665831 13.7749933004 10.8557845942 0.4662070293 1
20.1876984835 13.7749933004 10.7438151289 0.599049065 1
23.9877303839 13.7749933004 10.8749552716 0.5262734741 1
27.7877622843 13.7749933004 10.7291272568 0.2999185475 1
31.5877941847 13.7749933004 10.8386712884 0.404025015 1
35.3878260851 13.7749933004 10.8801521799 0.249665514 1
39.1878579855 13.7749933004 11.0227368457 0.195683101 1
42.9878898859 13.7749933004 10.8966992365 -0.0044198887 1
46.7879217863 13.7749933004 10.871466548 -0.0854579976 1
50.5879536867 13.7749933004 10.8206897341 -0.1319643496 1
54.3879855871 13.7749933004 10.9019747905 -0.1063919117 1
58.1880174875 13.7749933004 10.8074583804 -0.2964943134 1
61.9880493879 13.7749933004 10.5433157648 -0.1691370293 1
65.7880812883 13.7749933004 10.6485468659 -0.1591112746 1
69.5881131887 13.7749933004 10.5711123033 -0.2777955103 1
73.3881450891 13.7749933004 10.4863479609 -0.2337256022 1
77.1881769896 13.7749933004 10.6675980019 -0.2055279706 1
80.98820889 13.7749933004 10.4540874921 -0.4133807082 1
84.7882407904 13.7749933004 10.4373233733 -0.4725663211 1
88.5882726908 13.7749933004 10.4424353442 -0.3935667089 1
92.3883045912 13.7749933004 10.3802140071 -0.4292734326 1
96.1883364916 13.7749933004 0 -0 0
99.988368392 13.7749933004 0 -0 0
103.7884002924 13.7749933004 10.2377016953 -0.2865991106 1
107.5884321928 13.7749933004 10.1722904883 -0.3063533392 1
111.3884640932 13.7749933004 10.1868588189 -0.3544310325 1
115.1884959936 13.7749933004 10.077943953 -0.3637143717 1
118.988527894 13.7749933004 10.0382719128 -0.2960507516 1
122.7885597944 13.7749933004 9.9038726921 -0.1799806993 1
126.5885916948 13.7749933004 10.0517329119 -0.2436695653 1
130.3886235952 13.7749933004 9.9338870395 -0.1255484329 1
134.1886554956 13.7749933004 10.0413107829 -0.1292337707 1
137.988687396 13.7749933004 10.0042938218 -0.2611981204 1
141.7887192965 13.7749933004 10.1103742965 0.1112899663 1
145.5887511969 13.7749933004 10.0502071852 -0.1850108787 1
149.3887830973 13.7749933004 9.9668647571 -0.0431308783 1
153.1888149977 13.7749933004 10.1040511817 0.0064096251 1
156.9888468981 13.7749933004 10.2070424531 -0.3859679608 1
160.7888787985 13.7749933004 10.0902535789 -0.1712085572 1
164.5889106989 13.7749933004 0 -0 0
-25.4126843214 9.9749614 9.7429509933 0.3486379897 1
-21.612652421 9.9749614 9.8910534419 0.5305911233 1
-17.8126205206 9.9749614 10.0195919846 0.5115305499 1
-14.0125886202 9.9749614 9.8702721004 0.5295750208 1
-10.2125567198 9.9749614 9.9480904541 0.5226321778 1
-6.4125248194 9.9749614 10.0226465838 0.650813669 1
-2.612492919 9.9749614 0 -0 0
1.1875389814 9.9749614 0 -0 0
4.9875708818 9.9749614 0 -0 0
8.7876027822 9.9749614 0 -0 0
12.5876346827 9.9749614 10.4183823413 0.9344037949 1
16.3876665831 9.9749614 10.9292837256 0.4269785509 1
20.1876984835 9.9749614 10.8538656389 0.5057422259 1
23.9877303839 9.9749614 10.832634444 0.6233836195 1
27.7877622843 9.9749614 10.8691984059 0.1488951973 1
31.5877941847 9.9749614 11.0954526659 0.180957479 1
35.3878260851 9.9749614 10.8891083529 0.0819110762 1
39.1878579855 9.9749614 11.0983279529 -0.0894547724 1
42.9878898859 9.9749614 10.8343111705 0.042240609 1
46.7879217863 9.9749614 10.8951389057 -0.0797105693 1
50.5879536867 9.9749614 10.8656278908 -0.1246738927 1
54.3879855871 9.9749614 10.9056365346 -0.1471587001 1
58.1880174875 9.9749614 10.6452689129 -0.3162768544 1
61.9880493879 9.9749614 10.6154999401 -0.2508137413 1
65.7880812883 9.9749614 10.696976892 -0.2644210214 1
69.5881131887 9.9749614 10.8144861608 -0.242703796 1
73.3881450891 9.9749614 10.5566068892 -0.415930402 1
77.1881769896 9.9749614 10.6368318015 -0.4764231065 1
80.98820889 9.9749614 10.3595584987 -0.3537782731 1
84.7882407904 9.9749614 10.5281182685 -0.4473934034 1
88.5882726908 9.9749614 10.2055859346 -0.4248535439 1
92.3883045912 9.9749614 10.228858772 -0.4311609296 1
96.1883364916 9.9749614 0 -0 0
99.988368392 9.9749614 0 -0 0
103.7884002924 9.9749614 10.24871524 -0.4583691982 1
107.5884321928 9.9749614 10.2053059559 -0.4553838071 1
111.3884640932 9.9749614 10.1109940246 -0.3487150625 1
115.1884959936 9.9749614 10.1824924093 -0.3570546532 1
118.988527894 9.9749614 10.0483228341 -0.2188930219 1
122.7885597944 9.9749614 9.9936168806 -0.3931546054 1
126.5885916948 9.9749614 9.944026044 -0.1422103123 1
130.3886235952 9.9749614 9.9795581742 -0.1609295633 1
134.1886554956 9.9749614 10.0262894529 -0.199456522 1
137.988687396 9.9749614 9.91032164 -0.1590153268 1
141.7887192965 9.9749614 9.867440855 -0.2437057423 1
145.5887511969 9.9749614 10.0837700269 -0.0433510863 1
149.3887830973 9.9749614 9.841264418 -0.0835201674 1
153.1888149977 9.9749614 10.0726904198 -0.1509777356 1
156.9888468981 9.9749614 10.0706582147 -0.2241418364 1
160.7888787985 9.9749614 10.0269154728 -0.0582418644 1
164.5889106989 9.9749614 0 -0 0
-25.4126843214 6.1749294996 9.8235502591 0.4406393101 1
-21.612652421 6.1749294996 9.6949362166 0.4205500508 1
-17.8126205206 6.1749294996 9.6636887045 0.3665928045 1
-14.0125886202 6.1749294996 9.9649772602 0.5873654588 1
-10.2125567198 6.1749294996 9.950399492 0.69358435 1
-6.4125248194 6.1749294996 9.8911824209 0.702743429 1
-2.612492919 6.1749294996 9.8065785157 0.8829317529 1
1.1875389814 6.1749294996 0 -0 0
4.9875708818 6.1749294996 0 -0 0
8.7876027822 6.1749294996 0 -0 0
12.5876346827 6.1749294996 10.958785303 0.7224394597 1
16.3876665831 6.1749294996 11.0187070397 0.7057036534 1
20.1876984835 6.1749294996 10.9910583551 0.6498840768 1
23.9877303839 6.1749294996 11.0833726854 0.4897362517 1
27.7877622843 6.1749294996 11.01078899 0.4083945704 1
31.5877941847 6.1749294996 11.0923540251 0.2054823561 1
35.3878260851 6.1749294996 11.0901708203 0.075650878 1
39.1878579855 6.1749294996 11.0988187022 -0.1543752302 1
42.9878898859 6.1749294996 11.0346092016 -0.0456270931 1
46.7879217863 6.1749294996 11.0036794181 -0.0971211558 1
50.5879536867 6.1749294996 10.8948369062 -0.170643881 1
54.3879855871 6.1749294996 11.0210066402 -0.1191340891 1
58.1880174875 6.1749294996 10.8211301501 -0.4987474768 1
61.9880493879 6.1749294996 10.6995722003 -0.2965603758 1
65.7880812883 6.1749294996 10.7776579493 -0.2420982241 1
69.5881131887 6.1749294996 10.5421486625 -0.3201981294 1
73.3881450891 6.1749294996 10.4931114916 -0.3820356755 1
77.1881769896 6.1749294996 10.6678245015 -0.5453041621 1
80.98820889 6.1749294996 10.5290966211 -0.5434685713 1
84.7882407904 6.1749294996 10.5398081663 -0.454800256 1
88.5882726908 6.1749294996 10.5922805817 -0.3956618306 1
92.3883045912 6.1749294996 10.4571232164 -0.6944494528 1
96.1883364916 6.1749294996 0 -0 0
99.988368392 6.1749294996 0 -0 0
103.7884002924 6.1749294996 10.0863212936 -0.4948623789 1
107.5884321928 6.1749294996 10.0572381114 -0.5062471314 1
111.3884640932 6.1749294996 10.1317155954 -0.3883760923 1
115.1884959936 6.1749294996 9.9797154656 -0.4298727129 1
118.988527894 6.1749294996 10.0225050215 -0.3121102049 1
122.7885597944 6.1749294996 9.8756263001 -0.3209216699 1
126.5885916948 6.1749294996 9.8868254487 -0.3282026894 1
130.3886235952 6.1749294996 9.9382125533 -0.2000385003 1
134.1886554956 6.1749294996 10.0124761211 -0.2454957186 1
137.988687396 6.1749294996 10.0185003822 -0.2621041189 1
141.7887192965 6.1749294996 9.9158425686 -0.2018693723 1
145.5887511969 6.1749294996 10.1730863828 0.03304378 1
149.3887830973 6.1749294996 9.9569176482 -0.0921413097 1
153.1888149977 6.1749294996 10.0895237468 -0.0833345635 1
156.9888468981 6.1749294996 10.012916537 -0.0139092796 1
160.7888787985 6.1749294996 9.9391971976 -0.0148640385 1
164.5889106989 6.1749294996 0 -0 0
-25.4126843214 2.3748975992 9.8451463701 0.368195604 1
-21.612652421 2.3748975992 9.7604386526 0.4361942548 1
-17.8126205206 2.3748975992 9.7432089512 0.5167384686 1
-14.0125886202 2.3748975992 9.8130337552 0.5423439377 1
-10.2125567198 2.3748975992 9.8316067253 0.7513700693 1
-6.4125248194 2.3748975992 9.601766221 0.7588005157 1
-2.612492919 2.3748975992 10.1048030346 1.1230811364 1
1.1875389814 2.3748975992 0 -0 0
4.9875708818 2.3748975992 0 -0 0
8.7876027822 2.3748975992 0 -0 0
12.5876346827 2.3748975992 10.715166071 0.8809137041 1
16.3876665831 2.3748975992 11.2415732427 0.770883642 1
20.1876984835 2.3748975992 11.0064194345 0.8331757603 1
23.9877303839 2.3748975992 11.1529772815 0.4643793031 1
27.7877622843 2.3748975992 11.1477740815 0.4221717253 1
31.5877941847 2.3748975992 11.2620620222 0.1695727265 1
35.3878260851 2.3748975992 11.1856624371 0.2997172145 1
39.1878579855 2.3748975992 11.2699391761 0.0904016667 1
42.9878898859 2.3748975992 11.2961439255 -0.2793857264 1
46.7879217863 2.3748975992 11.0540441285 -0.1200778376 1
50.5879536867 2.3748975992 10.9183739932 -0.3741207716 1
54.3879855871 2.3748975992 10.8373657697 -0.4329383225 1
58.1880174875 2.3748975992 10.9004931054 -0.5319186629 1
61.9880493879 2.3748975992 10.977414898 -0.4507028147 1
65.7880812883 2.3748975992 10.8146969313 -0.2496686598 1
69.5881131887 2.3748975992 10.396572314 -0.3118947157 1
73.3881450891 2.3748975992 10.5736667159 -0.4542937777 1
77.1881769896 2.3748975992 10.6531555043 -0.4437898571 1
80.98820889 2.3748975992 10.6271615254 -0.6187623978 1
84.7882407904 2.3748975992 10.4210657328 -0.5472765964 1
88.5882726908 2.3748975992 10.4730411073 -0.5624221866 1
92.3883045912 2.3748975992 10.3204558535 -0.7716292033 1
96.1883364916 2.3748975992 0 -0 0
99.988368392 2.3748975992 0 -0 0
103.7884002924 2.3748975992 10.1446512412 -0.6083497063 1
107.5884321928 2.3748975992 9.8951209978 -0.5720452752 1
111.3884640932 2.3748975992 10.0259905993 -0.4878110048 1
115.1884959936 2.3748975992 9.8212286379 -0.3598811799 1
118.988527894 2.3748975992 9.9511419075 -0.3652448171 1
122.7885597944 2.3748975992 9.9151630697 -0.2998792246 1
126.5885916948 2.3748975992 9.9206147901 -0.2050403672 1
130.3886235952 2.3748975992 9.7925795799 -0.2332002489 1
134.1886554956 2.3748975992 9.9468509977 -0.3073883167 1
137.988687396 2.3748975992 9.9288757351 -0.1938349269 1
141.7887192965 2.3748975992 10.0648635991 -0.2159988599 1
145.5887511969 2.3748975992 10.1211833624 -0.1894858194 1
149.3887830973 2.3748975992 10.0099437293 -0.0453864372 1
153.1888149977 2.3748975992 9.9597331645 0.0207121333 1
156.9888468981 2.3748975992 9.9392066351 -0.1000090262 1
160.7888787985 2.3748975992 10.031196945 -0.266810278 1
164.5889106989 2.3748975992 0 -0 0
-25.4126843214 -1.4251343012 9.7474212152 0.3897240797 1
-21.612652421 -1.4251343012 9.8188975791 0.4061972094 1
-17.8126205206 -1.4251343012 9.7374992729 0.4620859943 1
-14.0125886202 -1.4251343012 9.5801229226 0.6741793084 1
-10.2125567198 -1.4251343012 9.7409187882 0.6949921082 1
-6.4125248194 -1.4251343012 9.7099701298 0.8464511555 1
-2.612492919 -1.4251343012 9.7447755737 0.9771933509 1
1.1875389814 -1.4251343012 0 -0 0
4.9875708818 -1.4251343012 0 -0 0
8.7876027822 -1.4251343012 0 -0 0
12.5876346827 -1.4251343012 10.9856255097 1.0475686749 1
16.3876665831 -1.4251343012 0 -0 0
20.1876984835 -1.4251343012 0 -0 0
23.9877303839 -1.4251343012 11.4205582874 0.5848755358 1
27.7877622843 -1.4251343012 11.4147919842 0.5052420392 1
31.5877941847 -1.4251343012 11.2301727611 0.3102321454 1
35.3878260851 -1.4251343012 11.2528353079 -0.0164212235 1
39.1878579855 -1.4251343012 11.3274228959 -0.0881712744 1
42.9878898859 -1.4251343012 11.2375371451 -0.1129509636 1
46.7879217863 -1.4251343012 11.1184172122 -0.225980573 1
50.5879536867 -1.4251343012 11.0110846978 -0.3952859041 1
54.3879855871 -1.4251343012 10.977889918 -0.3254689646 1
58.1880174875 -1.4251343012 10.8797337847 -0.5941683125 1
61.9880493879 -1.4251343012 10.9777546474 -0.4926429971 1
65.7880812883 -1.4251343012 10.9237281929 -0.6703524083 1
69.5881131887 -1.4251343012 10.8972969439 -0.5305140505 1
73.3881450891 -1.4251343012 10.5021400187 -0.5043281761 1
77.1881769896 -1.4251343012 10.5008565208 -0.6772810951 1
80.98820889 -1.4251343012 10.5764350447 -0.6416435796 1
84.7882407904 -1.4251343012 10.4663467848 -0.565914056 1
88.5882726908 -1.4251343012 10.4069252348 -0.6185532002 1
92.3883045912 -1.4251343012 10.3396737183 -0.8001020949 1
96.1883364916 -1.4251343012 10.1511851265 -0.7353247723 1
99.988368392 -1.4251343012 0 -0 0
103.7884002924 -1.4251343012 9.8329153898 -0.5752901971 1
107.5884321928 -1.4251343012 9.9271675503 -0.6139288327 1
111.3884640932 -1.4251343012 9.888615425 -0.5754459156 1
115.1884959936 -1.4251343012 9.9014881542 -0.4719984991 1
118.988527894 -1.4251343012 9.8533129403 -0.3151789604 1
122.7885597944 -1.4251343012 9.7093850058 -0.3910217339 1
126.5885916948 -1.4251343012 9.8196022447 -0.1957507363 1
130.3886235952 -1.4251343012 9.7592243629 -0.0798599962 1
134.1886554956 -1.4251343012 10.072227983 -0.058084573 1
137.988687396 -1.4251343012 9.9605133299 -0.2120256788 1
141.7887192965 -1.4251343012 9.8811692495 -0.2585697809 1
145.5887511969 -1.4251343012 9.9330124992 -0.2864040693 1
149.3887830973 -1.4251343012 9.8153616682 -0.1876848327 1
153.1888149977 -1.4251343012 9.8454515155 -0.0145400182 1
156.9888468981 -1.4251343012 10.1538024556 0.094022515 1
160.7888787985 -1.4251343012 10.1480298607 -0.0114696898 1