TITLE = "B00002"
VARIABLES = "x", "y", "Vx", "Vy", "isValid"
ZONE T="Frame 0", I=26, J=20, F=POINT
-23.5126683712 34.6751687527 10.1794094976 0.3361663536 1
-15.9126045704 34.6751687527 10.1724509255 0.3614147712 1
-8.3125407696 34.6751687527 0 -0 0
-0.7124769688 34.6751687527 0 -0 0
6.887586832 34.6751687527 0 -0 0
14.4876506329 34.6751687527 0 -0 0
22.0877144337 34.6751687527 10.5293640165 0.2805418183 1
29.6877782345 34.6751687527 10.4841773394 0.3533866175 1
37.2878420353 34.6751687527 10.5588655939 0.1307154558 1
44.8879058361 34.6751687527 10.6272873586 0.1415622717 1
52.4879696369 34.6751687527 10.5808234752 0.0554861188 1
60.0880334377 34.6751687527 10.5033228502 0.0580216564 1
67.6880972385 34.6751687527 10.4576139656 -0.0577825735 1
75.2881610394 34.6751687527 10.4545310539 -0.1220801573 1
82.8882248402 34.6751687527 10.3869460795 -0.1510154856 1
90.488288641 34.6751687527 0 -0 0
98.0883524418 34.6751687527 0 -0 0
105.6884162426 34.6751687527 10.2362609059 -0.2381108868 1
113.2884800434 34.6751687527 10.2330018279 -0.1921440442 1
120.8885438442 34.6751687527 10.1294474532 -0.1523335876 1
128.488607645 34.6751687527 10.1520093335 -0.0822791381 1
136.0886714458 34.6751687527 10.1070365727 -0.0673679122 1
143.6887352467 34.6751687527 10.1373246072 -0.0456270931 1
151.2887990475 34.6751687527 10.1364752335 -0.0839338438 1
158.8888628483 34.6751687527 10.1402691024 0.116571812 1
166.4889266491 34.6751687527 0 -0 0
-23.5126683712 27.0751049519 10.0691104672 0.3850399414 1
-15.9126045704 27.0751049519 10.1154485175 0.4236424 1
-8.3125407696 27.0751049519 10.153575956 0.4676808498 1
-0.7124769688 27.0751049519 0 -0 0
6.887586832 27.0751049519 0 -0 0
14.4876506329 27.0751049519 0 -0 0
22.0877144337 27.0751049519 10.6469613685 0.3536131171 1
29.6877782345 27.0751049519 10.6212662433 0.2895797829 1
37.2878420353 27.0751049519 10.7012394893 0.202956256 1
44.8879058361 27.0751049519 10.6518122357 0.0751443996 1
52.4879696369 27.0751049519 10.6385682987 -0.0804451202 1
60.0880334377 27.0751049519 10.5741606109 0.0230180254 1
67.6880972385 27.0751049519 10.5031844337 -0.2115317838 1
75.2881610394 27.0751049519 10.4272630145 -0.1885578 1
82.8882248402 27.0751049519 10.4563556343 -0.1559827484 1
90.488288641 27.0751049519 0 -0 0
98.0883524418 27.0751049519 0 -0 0
105.6884162426 27.0751049519 10.2284466685 -0.2403475707 1
113.2884800434 27.0751049519 10.2092193662 -0.2030223184 1
120.8885438442 27.0751049519 10.0878218537 -0.1765029861 1
128.488607645 27.0751049519 10.1324485734 -0.1026074803 1
136.0886714458 27.0751049519 10.1405459353 -0.1531357738 1
143.6887352467 27.0751049519 10.126704291 -0.1180629346 1
151.2887990475 27.0751049519 10.1145676856 -0.1002103592 1
158.8888628483 27.0751049519 10.0796993251 -0.0387440208 1
166.4889266491 27.0751049519 0 -0 0
-23.5126683712 19.475041151 9.9722189568 0.3949713213 1
-15.9126045704 19.475041151 10.0346447728 0.5139748585 1
-8.3125407696 19.475041151 10.1741559644 0.5163971462 1
-0.7124769688 19.475041151 0 -0 0
6.887586832 19.475041151 0 -0 0
14.4876506329 19.475041151 10.5576890541 0.5234438015 1
22.0877144337 19.475041151 10.6759721967 0.4069065937 1
29.6877782345 19.475041151 10.7471245403 0.2247316792 1
37.2878420353 19.475041151 10.8163264703 0.1139481912 1
44.8879058361 19.475041151 10.8187927997 0.0055398036 1
52.4879696369 19.475041151 10.6722097861 0.0057254074 1
60.0880334377 19.475041151 10.6312762688 -0.0485999008 1
67.6880972385 19.475041151 10.5859385919 -0.2049853152 1
75.2881610394 19.475041151 10.5385812933 -0.1940409787 1
82.8882248402 19.475041151 10.4895629974 -0.2302809202 1
90.488288641 19.475041151 10.3497498062 -0.3627265816 1
98.0883524418 19.475041151 0 -0 0
105.6884162426 19.475041151 10.1658069362 -0.3003510989 1
113.2884800434 19.475041151 10.1379663561 -0.2711263543 1
120.8885438442 19.475041151 10.1241247118 -0.1947582275 1
128.488607645 19.475041151 10.067977969 -0.1646526511 1
136.0886714458 19.475041151 10.0935158028 -0.1226401147 1
143.6887352467 19.475041151 10.1247727524 -0.1153606681 1
151.2887990475 19.475041151 10.0265033693 0.0519879578 1
158.8888628483 19.475041151 10.1101572343 -0.0556434102 1
166.4889266491 19.475041151 0 -0 0
-23.5126683712 11.8749773502 9.9354568078 0.4439235548 1
-15.9126045704 11.8749773502 9.9039356086 0.4991674449 1
-8.3125407696 11.8749773502 10.0503047059 0.6091141425 1
-0.7124769688 11.8749773502 0 -0 0
6.887586832 11.8749773502 0 -0 0
14.4876506329 11.8749773502 10.7327984384 0.6734557679 1
22.0877144337 11.8749773502 10.8998419189 0.4630879406 1
29.6877782345 11.8749773502 10.9542521645 0.2967837296 1
37.2878420353 11.8749773502 10.9320048671 0.1399610451 1
44.8879058361 11.8749773502 10.9463435523 0.002966516 1
52.4879696369 11.8749773502 10.8216177534 -0.2810482967 1
60.0880334377 11.8749773502 10.7745813293 -0.2337790813 1
67.6880972385 11.8749773502 10.7532400304 -0.295604044 1
75.2881610394 11.8749773502 10.5608663407 -0.3188108191 1
82.8882248402 11.8749773502 10.443721988 -0.4019330392 1
90.488288641 11.8749773502 10.3395195727 -0.4379590644 1
98.0883524418 11.8749773502 0 -0 0
105.6884162426 11.8749773502 10.2257412562 -0.4444048665 1
113.2884800434 11.8749773502 10.1099496097 -0.3538301793 1
120.8885438442 11.8749773502 10.0088301061 -0.2407030493 1
128.488607645 11.8749773502 9.9968193338 -0.186818157 1
136.0886714458 11.8749773502 9.9715142913 -0.1406720023 1
143.6887352467 11.8749773502 10.0908733071 -0.1488700307 1
151.2887990475 11.8749773502 10.0519216616 -0.0989551737 1
158.8888628483 11.8749773502 10.074187834 -0.1471146585 1
166.4889266491 11.8749773502 0 -0 0
-23.5126683712 4.2749135494 9.811737674 0.4568875131 1
-15.9126045704 4.2749135494 9.8201622021 0.5785398377 1
-8.3125407696 4.2749135494 9.9875202655 0.7663237639 1
-0.7124769688 4.2749135494 0 -0 0
6.887586832 4.2749135494 0 -0 0
14.4876506329 4.2749135494 10.8372651032 0.9397281093 1
22.0877144337 4.2749135494 11.1023640506 0.6270044678 1
29.6877782345 4.2749135494 11.1062963359 0.2994293712 1
37.2878420353 4.2749135494 11.185168542 -0.0036585983 1
44.8879058361 4.2749135494 11.067992731 -0.1144798362 1
52.4879696369 4.2749135494 10.9441980974 -0.2471394139 1
60.0880334377 4.2749135494 10.9004522096 -0.3723874202 1
67.6880972385 4.2749135494 10.780558403 -0.465425291 1
75.2881610394 4.2749135494 10.6173339579 -0.3977774001 1
82.8882248402 4.2749135494 10.5941051621 -0.4742461934 1
90.488288641 4.2749135494 10.4915763275 -0.5979055564 1
98.0883524418 4.2749135494 0 -0 0
105.6884162426 4.2749135494 10.0291144067 -0.4365528792 1
113.2884800434 4.2749135494 9.9761260755 -0.4248787105 1
120.8885438442 4.2749135494 9.9761134922 -0.3138655771 1
128.488607645 4.2749135494 9.9293790676 -0.2357640989 1
136.0886714458 4.2749135494 10.0571122782 -0.1056778087 1
143.6887352467 4.2749135494 10.0650712237 -0.2383405322 1
151.2887990475 4.2749135494 10.0466618367 -0.1175438729 1
158.8888628483 4.2749135494 10.0802341159 -0.0379135222 1
166.4889266491 4.2749135494 0 -0 0
-23.5126683712 -3.3251502514 9.7081581327 0.3187416109 1
-15.9126045704 -3.3251502514 9.5844830406 0.5577710795 1
-8.3125407696 -3.3251502514 9.4703838496 1.0101411832 1
-0.7124769688 -3.3251502514 0 -0 0
6.887586832 -3.3251502514 0 -0 0
14.4876506329 -3.3251502514 0 -0 0
22.0877144337 -3.3251502514 0 -0 0
29.6877782345 -3.3251502514 0 -0 0
37.2878420353 -3.3251502514 0 -0 0
44.8879058361 -3.3251502514 0 -0 0
52.4879696369 -3.3251502514 0 -0 0
60.0880334377 -3.3251502514 0 -0 0
67.6880972385 -3.3251502514 10.8721334636 -0.5552795835 1
75.2881610394 -3.3251502514 10.657575393 -0.5809275213 1
82.8882248402 -3.3251502514 10.5824781808 -0.7943059063 1
90.488288641 -3.3251502514 10.5144339156 -0.7675600745 1
98.0883524418 -3.3251502514 0 -0 0
105.6884162426 -3.3251502514 9.9405907995 -0.6942780052 1
113.2884800434 -3.3251502514 9.839653754 -0.4450340322 1
120.8885438442 -3.3251502514 9.8896472567 -0.4590990303 1
128.488607645 -3.3251502514 9.6745921452 -0.0995528811 1
136.0886714458 -3.3251502514 10.1233508381 0.0769784175 1
143.6887352467 -3.3251502514 10.0554701559 -0.3578851519 1
151.2887990475 -3.3251502514 9.8510919855 -0.1770849644 1
158.8888628483 -3.3251502514 10.1436603053 -0.0668677255 1
166.4889266491 -3.3251502514 0 -0 0
-23.5126683712 -10.9252140522 9.6440461528 0.2234985145 1
-15.9126045704 -10.9252140522 9.4665207725 0.4228465055 1
-8.3125407696 -10.9252140522 0 -0 0
-0.7124769688 -10.9252140522 0 -0 0
6.887586832 -10.9252140522 0 -0 0
14.4876506329 -10.9252140522 0 -0 0
22.0877144337 -10.9252140522 0 -0 0
29.6877782345 -10.9252140522 0 -0 0
37.2878420353 -10.9252140522 0 -0 0
44.8879058361 -10.9252140522 0 -0 0
52.4879696369 -10.9252140522 0 -0 0
60.0880334377 -10.9252140522 0 -0 0
67.6880972385 -10.9252140522 0 -0 0
75.2881610394 -10.9252140522 0 -0 0
82.8882248402 -10.9252140522 0 -0 0
90.488288641 -10.9252140522 0 -0 0
98.0883524418 -10.9252140522 0 -0 0
105.6884162426 -10.9252140522 0 -0 0
113.2884800434 -10.9252140522 0 -0 0
120.8885438442 -10.9252140522 9.8343373042 -1.1562177184 1
128.488607645 -10.9252140522 8.8940869875 -0.3096627505 1
136.0886714458 -10.9252140522 9.4100091136 1.4405219473 1
143.6887352467 -10.9252140522 9.6779078482 -1.2408562277 1
151.2887990475 -10.9252140522 9.2943873418 -0.6522591771 1
158.8888628483 -10.9252140522 10.4121127056 0.4507751687 1
166.4889266491 -10.9252140522 0 -0 0
-23.5126683712 -18.525277853 9.6104738736 0.0514909169 1
-15.9126045704 -18.525277853 9.4481239688 0.0730366947 1
-8.3125407696 -18.525277853 8.8866879994 -0.1433207897 1
-0.7124769688 -18.525277853 0 -0 0
6.887586832 -18.525277853 0 -0 0
14.4876506329 -18.525277853 0 -0 0
22.0877144337 -18.525277853 0 -0 0
29.6877782345 -18.525277853 0 -0 0
37.2878420353 -18.525277853 0 -0 0
44.8879058361 -18.525277853 0 -0 0
52.4879696369 -18.525277853 0 -0 0
60.0880334377 -18.525277853 0 -0 0
67.6880972385 -18.525277853 0 -0 0
75.2881610394 -18.525277853 0 -0 0
82.8882248402 -18.525277853 0 -0 0
90.488288641 -18.525277853 0 -0 0
98.0883524418 -18.525277853 0 -0 0
105.6884162426 -18.525277853 0 -0 0
113.2884800434 -18.525277853 9.063823297 1.9710249875 1
120.8885438442 -18.525277853 8.608162657 -0.8088113204 1
128.488607645 -18.525277853 10.375124057 -0.649843181 1
136.0886714458 -18.525277853 8.1804935968 0.9678266473 1
143.6887352467 -18.525277853 8.9254068536 -1.3374111345 1
151.2887990475 -18.525277853 9.7867660893 -1.5744524396 1
158.8888628483 -18.525277853 9.3448464271 1.4766832432 1
166.4889266491 -18.525277853 0 -0 0
-23.5126683712 -26.1253416538 9.6760455179 -0.179180086 1
-15.9126045704 -26.1253416538 9.523057598 -0.2190471675 1
-8.3125407696 -26.1253416538 9.3256442914 -0.5226258862 1
-0.7124769688 -26.1253416538 9.4026856255 -1.1805727208 1
6.887586832 -26.1253416538 10.2341280344 -1.8057683374 1
14.4876506329 -26.1253416538 11.1319977528 -1.5088084413 1
22.0877144337 -26.1253416538 11.4372500521 -0.9782393388 1
29.6877782345 -26.1253416538 0 -0 0
37.2878420353 -26.1253416538 0 -0 0
44.8879058361 -26.1253416538 0 -0 0
52.4879696369 -26.1253416538 0 -0 0
60.0880334377 -26.1253416538 0 -0 0
67.6880972385 -26.1253416538 0 -0 0
75.2881610394 -26.1253416538 10.7213350402 0.7283347419 1
82.8882248402 -26.1253416538 10.5070789691 0.6412928198 1
90.488288641 -26.1253416538 10.5212603629 0.7388134958 1
98.0883524418 -26.1253416538 10.3267978432 0.6981882697 1
105.6884162426 -26.1253416538 10.0131902241 0.5935706051 1
113.2884800434 -26.1253416538 9.6316390062 0.7667358674 1
120.8885438442 -26.1253416538 9.5948076489 0.0937268072 1
128.488607645 -26.1253416538 10.0562440296 0.0127060003 1
136.0886714458 -26.1253416538 9.7002872704 0.1448622455 1
143.6887352467 -26.1253416538 9.696814276 -0.4232649006 1
151.2887990475 -26.1253416538 10.228987751 -0.1653982124 1
158.8888628483 -26.1253416538 9.9459764575 0.2037301297 1
166.4889266491 -26.1253416538 0 -0 0
-23.5126683712 -33.7254054546 9.7710621146 -0.2757098261 1
-15.9126045704 -33.7254054546 9.6989723142 -0.3883871027 1
-8.3125407696 -33.7254054546 9.6918124091 -0.6052196071 1
-0.7124769688 -33.7254054546 9.7959393245 -0.8686166615 1
6.887586832 -33.7254054546 10.2753887178 -1.087443621 1
14.4876506329 -33.7254054546 10.7753489114 -0.9841692251 1
22.0877144337 -33.7254054546 11.0176154373 -0.7181548416 1
29.6877782345 -33.7254054546 11.1790341769 -0.387393021 1
37.2878420353 -33.7254054546 11.2035653457 -0.2313788143 1
44.8879058361 -33.7254054546 11.1073973758 0.0546682035 1
52.4879696369 -33.7254054546 11.0435748121 0.207973852 1
60.0880334377 -33.7254054546 10.881596115 0.2252759075 1
67.6880972385 -33.7254054546 10.7589025213 0.3655200771 1
75.2881610394 -33.7254054546 10.6826413526 0.4873296931 1
82.8882248402 -33.7254054546 10.5726820716 0.4859864245 1
90.488288641 -33.7254054546 10.5551975582 0.5131317765 1
98.0883524418 -33.7254054546 10.2198459741 0.4833848245 1
105.6884162426 -33.7254054546 10.1511662515 0.5585418074 1
113.2884800434 -33.7254054546 9.9595790189 0.4074696969 1
120.8885438442 -33.7254054546 9.9180352109 0.2645232608 1
128.488607645 -33.7254054546 9.9108627225 0.1423487287 1
136.0886714458 -33.7254054546 9.935104475 0.1149926062 1
143.6887352467 -33.7254054546 9.9950891283 0.0022618505 1
151.2887990475 -33.7254054546 10.073181169 -0.0328550303 1
158.8888628483 -33.7254054546 10.0799887413 -0.0661378933 1
166.4889266491 -33.7254054546 0 -0 0
-23.5126683712 -41.3254692554 9.8971091613 -0.2826054817 1
-15.9126045704 -41.3254692554 9.9047094824 -0.3542863244 1
-8.3125407696 -41.3254692554 9.9055525644 -0.5363731557 1
-0.7124769688 -41.3254692554 10.0801837827 -0.6438692531 1
6.887586832 -41.3254692554 10.3658312803 -0.7123444968 1
14.4876506329 -41.3254692554 10.5544236844 -0.657610231 1
22.0877144337 -41.3254692554 10.8024407844 -0.6819211918 1
29.6877782345 -41.3254692554 10.9259271269 -0.4201882806 1
37.2878420353 -41.3254692554 10.92498967 -0.2122584701 1
44.8879058361 -41.3254692554 10.9149985195 -0.0749273375 1
52.4879696369 -41.3254692554 10.9164518921 0.1381521938 1
60.0880334377 -41.3254692554 10.7543347786 0.2966264382 1
67.6880972385 -41.3254692554 10.7267710314 0.2687669832 1
75.2881610394 -41.3254692554 10.5969678658 0.3598921903 1
82.8882248402 -41.3254692554 10.5016115196 0.4241174201 1
90.488288641 -41.3254692554 10.4213048158 0.3786696392 1
98.0883524418 -41.3254692554 10.2741178032 0.4800911423 1
105.6884162426 -41.3254692554 10.1529782486 0.391715389 1
113.2884800434 -41.3254692554 10.0595093994 0.342863822 1
120.8885438442 -41.3254692554 10.0052564452 0.2777766353 1
128.488607645 -41.3254692554 10.0210610864 0.1931318343 1
136.0886714458 -41.3254692554 10.0463724205 0.126169734 1
143.6887352467 -41.3254692554 10.0461962542 0.0614065676 1
151.2887990475 -41.3254692554 10.0094781467 0.1261068174 1
158.8888628483 -41.3254692554 10.0539916166 -0.0547562867 1
166.4889266491 -41.3254692554 0 -0 0
-23.5126683712 -48.9255330563 10.0280511168 -0.2537267782 1
-15.9126045704 -48.9255330563 10.0602518148 -0.3225166048 1
-8.3125407696 -48.9255330563 10.0714698384 -0.4173947851 1
-0.7124769688 -48.9255330563 10.1474164242 -0.5559968324 1
6.887586832 -48.9255330563 10.3714182713 -0.5530995245 1
14.4876506329 -48.9255330563 10.4987991491 -0.4774392091 1
22.0877144337 -48.9255330563 10.6476345757 -0.415784121 1
29.6877782345 -48.9255330563 10.7001069911 -0.2702518141 1
37.2878420353 -48.9255330563 10.8863714823 -0.1431068733 1
44.8879058361 -48.9255330563 10.7591541875 0.032367427 1
52.4879696369 -48.9255330563 10.7589906045 0.1227722395 1
60.0880334377 -48.9255330563 10.703460444 0.1690379357 1
67.6880972385 -48.9255330563 10.5959549091 0.2888027633 1
75.2881610394 -48.9255330563 10.5507933986 0.3670583871 1
82.8882248402 -48.9255330563 10.465830869 0.3766783299 1
90.488288641 -48.9255330563 10.383548585 0.3495581445 1
98.0883524418 -48.9255330563 10.2655989003 0.3572371113 1
105.6884162426 -48.9255330563 10.1706515118 0.3442511322 1
113.2884800434 -48.9255330563 10.1487125055 0.2715824994 1
120.8885438442 -48.9255330563 10.0685882597 0.269100441 1
128.488607645 -48.9255330563 10.0434468003 0.1171349152 1
136.0886714458 -48.9255330563 10.0413768453 0.2244328255 1
143.6887352467 -48.9255330563 10.0175251754 0.092282872 1
151.2887990475 -48.9255330563 10.1048093263 0.1231717597 1
158.8888628483 -48.9255330563 10.1333986135 0.0762139812 1
166.4889266491 -48.9255330563 0 -0 0
-23.5126683712 -56.5255968571 10.0670153456 -0.2449121675 1
-15.9126045704 -56.5255968571 10.0619568537 -0.2829326478 1
-8.3125407696 -56.5255968571 10.1717085101 -0.2679333387 1
-0.7124769688 -56.5255968571 10.1912252286 -0.3631418309 1
6.887586832 -56.5255968571 10.3167563594 -0.3299973844 1
14.4876506329 -56.5255968571 10.4941810732 -0.3669105332 1
22.0877144337 -56.5255968571 10.5843216362 -0.2337916646 1
29.6877782345 -56.5255968571 10.6162329181 -0.2078763314 1
37.2878420353 -56.5255968571 10.7033849441 -0.2506816165 1
44.8879058361 -56.5255968571 10.6743929909 -0.1153921264 1
52.4879696369 -56.5255968571 10.6284072734 -0.0079149039 1
60.0880334377 -56.5255968571 10.5369140043 0.1868873652 1
67.6880972385 -56.5255968571 10.6172332914 0.1543060219 1
75.2881610394 -56.5255968571 10.6081166811 0.2229165363 1
82.8882248402 -56.5255968571 10.4866185021 0.2693615447 1
90.488288641 -56.5255968571 10.3100305786 0.2756909512 1
98.0883524418 -56.5255968571 10.2388027352 0.2855027895 1
105.6884162426 -56.5255968571 10.2128622353 0.2140106965 1
113.2884800434 -56.5255968571 10.2254203818 0.2529529045 1
120.8885438442 -56.5255968571 10.0796741585 0.1935974169 1
128.488607645 -56.5255968571 10.1347701946 0.1827380177 1
136.0886714458 -56.5255968571 10.1163670993 0.1144609612 1
143.6887352467 -56.5255968571 10.2245206749 0.0967971355 1
151.2887990475 -56.5255968571 10.2418919385 0.0368407947 1
158.8888628483 -56.5255968571 10.054331366 0.0635457308 1
166.4889266491 -56.5255968571 0 -0 0
-23.5126683712 -64.1256606579 10.1620759839 -0.2321558339 1
-15.9126045704 -64.1256606579 10.1906904378 -0.2894036165 1
-8.3125407696 -64.1256606579 10.1967996362 -0.3115187892 1
-0.7124769688 -64.1256606579 10.2781759217 -0.2588324575 1
6.887586832 -64.1256606579 10.3193170636 -0.2437450652 1
14.4876506329 -64.1256606579 10.4546002621 -0.3389378283 1
22.0877144337 -64.1256606579 10.5748589848 -0.1223129485 1
29.6877782345 -64.1256606579 10.523877692 -0.193871104 1
37.2878420353 -64.1256606579 10.583830887 -0.1371644038 1
44.8879058361 -64.1256606579 10.5556442658 0.0064615312 1
52.4879696369 -64.1256606579 10.5566257642 0.0654363736 1
60.0880334377 -64.1256606579 10.5155475388 0.0603023819 1
67.6880972385 -64.1256606579 10.5355487149 0.0948907636 1
75.2881610394 -64.1256606579 10.4869960015 0.1430974359 1
82.8882248402 -64.1256606579 10.3906644486 0.2270218422 1
90.488288641 -64.1256606579 10.3633964092 0.1573417462 1
98.0883524418 -64.1256606579 10.3377075756 0.1934652921 1
105.6884162426 -64.1256606579 10.1925150182 0.2413888398 1
113.2884800434 -64.1256606579 10.2521536303 0.1642908808 1
120.8885438442 -64.1256606579 10.1236905875 0.1508739233 1
128.488607645 -64.1256606579 10.1139196449 0.3152277207 1
136.0886714458 -64.1256606579 10.1148004768 0.1172355817 1
143.6887352467 -64.1256606579 10.1429682231 0.1392563796 1
151.2887990475 -64.1256606579 10.1651966456 0.0759560233 1
158.8888628483 -64.1256606579 10.1523931245 -0.1382685895 1
166.4889266491 -64.1256606579 0 -0 0
-23.5126683712 -71.7257244587 10.1949498892 -0.1574675793 1
-15.9126045704 -71.7257244587 10.2016819617 -0.2064103754 1
-8.3125407696 -71.7257244587 10.2000964643 -0.2071339159 1
-0.7124769688 -71.7257244587 10.2945531036 -0.2393220306 1
6.887586832 -71.7257244587 10.2943643539 -0.2141711337 1
14.4876506329 -71.7257244587 10.3590111246 -0.1844619316 1
22.0877144337 -71.7257244587 10.3868202464 -0.169874726 1
29.6877782345 -71.7257244587 10.4709396941 -0.1653478791 1
37.2878420353 -71.7257244587 10.5314025132 -0.0348746521 1
44.8879058361 -71.7257244587 10.4274832225 0.0121271679 1
52.4879696369 -71.7257244587 10.5759663163 0.0651029158 1
60.0880334377 -71.7257244587 10.543111286 0.0526265609 1
67.6880972385 -71.7257244587 10.4863039193 0.1095220108 1
75.2881610394 -71.7257244587 10.4275146808 0.0647726039 1
82.8882248402 -71.7257244587 10.4559655516 0.1157067092 1
90.488288641 -71.7257244587 10.3884183272 0.121334596 1
98.0883524418 -71.7257244587 10.3237967231 0.1972717443 1
105.6884162426 -71.7257244587 10.3075264993 0.2112612426 1
113.2884800434 -71.7257244587 10.2269429626 0.1348679491 1
120.8885438442 -71.7257244587 10.2698961017 0.2082632682 1
128.488607645 -71.7257244587 10.1898410641 0.1695475599 1
136.0886714458 -71.7257244587 10.1783210411 0.1095943649 1
143.6887352467 -71.7257244587 10.187683026 0.0782398946 1
151.2887990475 -71.7257244587 10.1371736074 0.0895837513 1
158.8888628483 -71.7257244587 10.1792836645 0.0786645815 1
166.4889266491 -71.7257244587 0 -0 0
-23.5126683712 -79.3257882595 10.2479759704 -0.0960956158 1
-15.9126045704 -79.3257882595 10.1529467903 -0.1664929606 1
-8.3125407696 -79.3257882595 10.2325173703 -0.1915211702 1
-0.7124769688 -79.3257882595 10.3253759289 -0.1344275332 1
6.887586832 -79.3257882595 10.3401424467 -0.1362584052 1
14.4876506329 -79.3257882595 10.3594767072 -0.2404576747 1
22.0877144337 -79.3257882595 10.4498563531 -0.1352769068 1
29.6877782345 -79.3257882595 10.394905025 -0.1073859935 1
37.2878420353 -79.3257882595 10.4884430825 -0.0021706215 1
44.8879058361 -79.3257882595 10.4644341212 -0.0689974512 1
52.4879696369 -79.3257882595 10.4538893049 -0.0270761438 1
60.0880334377 -79.3257882595 10.4509762679 0.0319207193 1
67.6880972385 -79.3257882595 10.5173721192 0.0812504523 1
75.2881610394 -79.3257882595 10.4102063337 0.1127024432 1
82.8882248402 -79.3257882595 10.3467612694 0.1506316945 1
90.488288641 -79.3257882595 10.3597283734 0.1028780216 1
98.0883524418 -79.3257882595 10.358564417 0.179142336 1
105.6884162426 -79.3257882595 10.2683923958 0.1501000496 1
113.2884800434 -79.3257882595 10.2098862818 0.1556838947 1
120.8885438442 -79.3257882595 10.1937859328 0.2074673737 1
128.488607645 -79.3257882595 10.2287738347 0.1389260676 1
136.0886714458 -79.3257882595 10.2019839612 0.1043659983 1
143.6887352467 -79.3257882595 10.1982467172 0.1196232654 1
151.2887990475 -79.3257882595 10.1932826003 0.0620734832 1
158.8888628483 -79.3257882595 10.1922193103 0.0891622104 1
166.4889266491 -79.3257882595 0 -0 0
-23.5126683712 -86.9258520603 10.1191668865 -0.0963063863 1
-15.9126045704 -86.9258520603 10.3026693405 -0.1829456424 1
-8.3125407696 -86.9258520603 10.2743568862 -0.1075118266 1
-0.7124769688 -86.9258520603 10.320720103 -0.1315302253 1
6.887586832 -86.9258520603 10.3303463375 -0.1492947175 1
14.4876506329 -86.9258520603 10.359004833 -0.1565898933 1
22.0877144337 -86.9258520603 10.4750796041 -0.1471209502 1
29.6877782345 -86.9258520603 10.3931559445 -0.067975057 1
37.2878420353 -86.9258520603 10.4246142271 -0.0809578903 1
44.8879058361 -86.9258520603 10.4794271387 0.0005473741 1
52.4879696369 -86.9258520603 10.5106652133 0.0717217385 1
60.0880334377 -86.9258520603 10.4290561366 0.0418520992 1
67.6880972385 -86.9258520603 10.414742618 0.0695825753 1
75.2881610394 -86.9258520603 10.4168566146 0.0677391199 1
82.8882248402 -86.9258520603 10.4188762364 0.0454068851 1
90.488288641 -86.9258520603 10.3239225562 0.1291079376 1
98.0883524418 -86.9258520603 10.3251431376 0.1584868277 1
105.6884162426 -86.9258520603 10.3143214884 0.1046679978 1
113.2884800434 -86.9258520603 10.2157123557 0.1211835962 1
120.8885438442 -86.9258520603 10.1998070481 0.1349277199 1
128.488607645 -86.9258520603 10.2135983592 0.1171160403 1
136.0886714458 -86.9258520603 10.17482288 0.0087674234 1
143.6887352467 -86.9258520603 10.1465104257 0.1186983919 1
151.2887990475 -86.9258520603 10.1408479348 0.1031548544 1
158.8888628483 -86.9258520603 10.1804727876 0.12862348 1
166.4889266491 -86.9258520603 0 -0 0
-23.5126683712 -94.5259158611 10.1149640599 -0.1343677624 1
-15.9126045704 -94.5259158611 10.2051486644 -0.0955545334 1
-8.3125407696 -94.5259158611 10.2469441387 -0.0854344039 1
-0.7124769688 -94.5259158611 10.2949872279 -0.1128282763 1
6.887586832 -94.5259158611 10.337260868 -0.1787679825 1
14.4876506329 -94.5259158611 10.3851781241 -0.0986154243 1
22.0877144337 -94.5259158611 10.3624086191 -0.0746662337 1
29.6877782345 -94.5259158611 10.416630115 -0.110343072 1
37.2878420353 -94.5259158611 10.4011652233 -0.0605603398 1
44.8879058361 -94.5259158611 10.4739282309 -0.0869538389 1
52.4879696369 -94.5259158611 10.4423063653 0.0078991748 1
60.0880334377 -94.5259158611 10.4298174271 0.0003208745 1
67.6880972385 -94.5259158611 10.4511083927 0.0910088115 1
75.2881610394 -94.5259158611 10.4436968213 0.0490308792 1
82.8882248402 -94.5259158611 10.3342408729 0.0256825419 1
90.488288641 -94.5259158611 10.3481265588 0.0865889228 1
98.0883524418 -94.5259158611 10.2301202492 0.0411631628 1
105.6884162426 -94.5259158611 10.2613142822 0.105709267 1
113.2884800434 -94.5259158611 10.3208773944 0.1624537171 1
120.8885438442 -94.5259158611 10.2529589623 0.0845315512 1
128.488607645 -94.5259158611 10.1888973157 0.0194129062 1
136.0886714458 -94.5259158611 10.2081749512 0.0510976884 1
143.6887352467 -94.5259158611 10.2905641933 -0.045573614 1
151.2887990475 -94.5259158611 10.2423701044 0.0045740343 1
158.8888628483 -94.5259158611 10.1978943845 -0.0254623339 1
166.4889266491 -94.5259158611 0 -0 0
-23.5126683712 -102.1259796619 10.1592132802 0.0098999215 1
-15.9126045704 -102.1259796619 10.315812611 -0.0431324513 1
-8.3125407696 -102.1259796619 10.2621888224 0.0275165598 1
-0.7124769688 -102.1259796619 10.2661588577 -0.097649655 1
6.887586832 -102.1259796619 10.379647758 -0.0632468772 1
14.4876506329 -102.1259796619 10.4053491749 -0.0956237416 1
22.0877144337 -102.1259796619 10.3318185851 0.0073203424 1
29.6877782345 -102.1259796619 10.373639226 -0.0972375515 1
37.2878420353 -102.1259796619 10.4150634925 -0.0766795638 1
44.8879058361 -102.1259796619 10.4150068676 -0.0361141084 1
52.4879696369 -102.1259796619 10.459199463 -0.0828076373 1
60.0880334377 -102.1259796619 10.4073939632 -0.0568923041 1
67.6880972385 -102.1259796619 10.3905700737 0.03461984 1
75.2881610394 -102.1259796619 10.2992592627 0.1059420583 1
82.8882248402 -102.1259796619 10.3909664481 0.0221969642 1
90.488288641 -102.1259796619 10.3884938271 0.0853463207 1
98.0883524418 -102.1259796619 10.3644408242 0.0690289095 1
105.6884162426 -102.1259796619 10.2710348915 0.0439692416 1
113.2884800434 -102.1259796619 10.2917847747 0.1059609333 1
120.8885438442 -102.1259796619 10.3103829114 0.0088146108 1
128.488607645 -102.1259796619 10.2876826147 0.0061343651 1
136.0886714458 -102.1259796619 10.1904828131 0.0294386608 1
143.6887352467 -102.1259796619 10.2769112987 0.0367495657 1
151.2887990475 -102.1259796619 10.1987626331 0.0014691018 1
158.8888628483 -102.1259796619 10.2312527473 -0.0392127493 1
166.4889266491 -102.1259796619 0 -0 0
-23.5126683712 -109.7260434628 0 -0 0
-15.9126045704 -109.7260434628 0 -0 0
-8.3125407696 -109.7260434628 0 -0 0
-0.7124769688 -109.7260434628 0 -0 0
6.887586832 -109.7260434628 0 -0 0
14.4876506329 -109.7260434628 0 -0 0
22.0877144337 -109.7260434628 0 -0 0
29.6877782345 -109.7260434628 0 -0 0
37.2878420353 -109.7260434628 0 -0 0
44.8879058361 -109.7260434628 0 -0 0
52.4879696369 -109.7260434628 0 -0 0
60.0880334377 -109.7260434628 0 -0 0
67.6880972385 -109.7260434628 0 -0 0
75.2881610394 -109.7260434628 0 -0 0
82.8882248402 -109.7260434628 0 -0 0
90.488288641 -109.7260434628 0 -0 0
98.0883524418 -109.7260434628 0 -0 0
105.6884162426 -109.7260434628 0 -0 0
113.2884800434 -109.7260434628 0 -0 0
120.8885438442 -109.7260434628 0 -0 0
128.488607645 -109.7260434628 0 -0 0
136.0886714458 -109.7260434628 0 -0 0
143.6887352467 -109.7260434628 0 -0 0
151.2887990475 -109.7260434628 0 -0 0
158.8888628483 -109.7260434628 0 -0 0
166.4889266491 -109.7260434628 0 -0 0
