TITLE = "B00003"
VARIABLES = "x", "y", "Vx", "Vy", "isValid"
ZONE T="Frame 0", I=26, J=20, F=POINT
-23.5126683712 34.6751687527 10.0559734884 0.3173039674 1
-15.9126045704 34.6751687527 10.0808632816 0.3338132741 1
-8.3125407696 34.6751687527 0 -0 0
-0.7124769688 34.6751687527 0 -0 0
6.887586832 34.6751687527 0 -0 0
14.4876506329 34.6751687527 0 -0 0
22.0877144337 34.6751687527 10.4626850407 0.237154555 1
29.6877782345 34.6751687527 10.5142137076 0.2506470124 1
37.2878420353 34.6751687527 10.5129931262 0.0887123569 1
44.8879058361 34.6751687527 10.628853981 0.0965706359 1
52.4879696369 34.6751687527 10.5293828915 0.0702778033 1
60.0880334377 34.6751687527 10.5294395164 0.0000440416 1
67.6880972385 34.6751687527 10.4369018323 -0.0465425291 1
75.2881610394 34.6751687527 10.4186119868 -0.098363758 1
82.8882248402 34.6751687527 10.4004479744 -0.1836754746 1
90.488288641 34.6751687527 0 -0 0
98.0883524418 34.6751687527 0 -0 0
105.6884162426 34.6751687527 10.1790257066 -0.1962241835 1
113.2884800434 34.6751687527 10.1514556677 -0.1349780531 1
120.8885438442 34.6751687527 10.0843740259 -0.1746469475 1
128.488607645 34.6751687527 10.1611511104 -0.1941290619 1
136.0886714458 34.6751687527 10.0974229215 -0.0896435221 1
143.6887352467 34.6751687527 10.1043437437 -0.0728416533 1
151.2887990475 34.6751687527 10.1731052578 -0.0572918243 1
158.8888628483 34.6751687527 10.1500777949 0.0164684109 1
166.4889266491 34.6751687527 0 -0 0
-23.5126683712 27.0751049519 9.9854251439 0.3170806136 1
-15.9126045704 27.0751049519 10.1722307175 0.4151266429 1
-8.3125407696 27.0751049519 10.1280947471 0.4396861241 1
-0.7124769688 27.0751049519 0 -0 0
6.887586832 27.0751049519 0 -0 0
14.4876506329 27.0751049519 0 -0 0
22.0877144337 27.0751049519 10.5781369378 0.2695974818 1
29.6877782345 27.0751049519 10.6265701097 0.3216986894 1
37.2878420353 27.0751049519 10.6429661666 0.1502699243 1
44.8879058361 27.0751049519 10.6648925896 0.0664965177 1
52.4879696369 27.0751049519 10.6118098835 0.0479581518 1
60.0880334377 27.0751049519 10.5569214721 0.0700796161 1
67.6880972385 27.0751049519 10.5079535094 -0.1238229461 1
75.2881610394 27.0751049519 10.4525365988 -0.2772355528 1
82.8882248402 27.0751049519 10.4416709079 -0.1970169322 1
90.488288641 27.0751049519 0 -0 0
98.0883524418 27.0751049519 0 -0 0
105.6884162426 27.0751049519 10.227320462 -0.2115192005 1
113.2884800434 27.0751049519 10.1702551374 -0.1591285767 1
120.8885438442 27.0751049519 10.1530789151 -0.2058881679 1
128.488607645 27.0751049519 10.1550544952 -0.1641210061 1
136.0886714458 27.0751049519 10.0333235249 -0.1899639853 1
143.6887352467 27.0751049519 10.0937171359 -0.1458531814 1
151.2887990475 27.0751049519 10.057867277 -0.1270002327 1
158.8888628483 27.0751049519 10.081863655 0.0404899555 1
166.4889266491 27.0751049519 0 -0 0
-23.5126683712 19.475041151 10.0114788935 0.4204525302 1
-15.9126045704 19.475041151 10.0419242194 0.3794466588 1
-8.3125407696 19.475041151 10.1482532146 0.5159032512 1
-0.7124769688 19.475041151 0 -0 0
6.887586832 19.475041151 0 -0 0
14.4876506329 19.475041151 10.4527316401 0.4018575393 1
22.0877144337 19.475041151 10.7098087254 0.5009039421 1
29.6877782345 19.475041151 10.7842138554 0.1852829928 1
37.2878420353 19.475041151 10.7631997227 -0.0001006665 1
44.8879058361 19.475041151 10.8267517452 0.0812693272 1
52.4879696369 19.475041151 10.7045174423 -0.0997070267 1
60.0880334377 19.475041151 10.7058386902 -0.1407097522 1
67.6880972385 19.475041151 10.5575128878 -0.1931916051 1
75.2881610394 19.475041151 10.5484214441 -0.3340083154 1
82.8882248402 19.475041151 10.415164159 -0.3203617124 1
90.488288641 19.475041151 10.4150257426 -0.3578631311 1
98.0883524418 19.475041151 0 -0 0
105.6884162426 19.475041151 10.2439870601 -0.3754923527 1
113.2884800434 19.475041151 10.198838133 -0.255818754 1
120.8885438442 19.475041151 10.1359089845 -0.3000019119 1
128.488607645 19.475041151 10.0804920738 -0.2113713466 1
136.0886714458 19.475041151 10.0501411228 -0.1723882428 1
143.6887352467 19.475041151 10.0838077768 -0.0683210981 1
151.2887990475 19.475041151 10.0893507262 -0.147344304 1
158.8888628483 19.475041151 10.0494364573 -0.0644265627 1
166.4889266491 19.475041151 0 -0 0
-23.5126683712 11.8749773502 9.9160407558 0.382649112 1
-15.9126045704 11.8749773502 10.0713754636 0.5518726515 1
-8.3125407696 11.8749773502 10.0744583752 0.5967069959 1
-0.7124769688 11.8749773502 0 -0 0
6.887586832 11.8749773502 0 -0 0
14.4876506329 11.8749773502 10.5697312847 0.8279662687 1
22.0877144337 11.8749773502 10.7879825577 0.4498093995 1
29.6877782345 11.8749773502 10.9832378261 0.2341282682 1
37.2878420353 11.8749773502 10.9636015661 0.1807844584 1
44.8879058361 11.8749773502 10.8789724943 0.092392976 1
52.4879696369 11.8749773502 10.8415937629 -0.1383031936 1
60.0880334377 11.8749773502 10.774386288 -0.1960543088 1
67.6880972385 11.8749773502 10.6863471383 -0.3215351064 1
75.2881610394 11.8749773502 10.5626091295 -0.2873305157 1
82.8882248402 11.8749773502 10.5191904079 -0.416296891 1
90.488288641 11.8749773502 10.3749353073 -0.4105777753 1
98.0883524418 11.8749773502 0 -0 0
105.6884162426 11.8749773502 10.2191979335 -0.3566708622 1
113.2884800434 11.8749773502 10.1311210339 -0.3927251999 1
120.8885438442 11.8749773502 10.111629482 -0.3097854378 1
128.488607645 11.8749773502 10.015700595 -0.2098865156 1
136.0886714458 11.8749773502 10.0376647679 -0.1867646779 1
143.6887352467 11.8749773502 10.0040861971 -0.097850988 1
151.2887990475 11.8749773502 10.0121332258 -0.1503139659 1
158.8888628483 11.8749773502 10.1034629118 -0.0941892439 1
166.4889266491 11.8749773502 0 -0 0
-23.5126683712 4.2749135494 9.8127695057 0.4195842816 1
-15.9126045704 4.2749135494 9.7708481983 0.646637582 1
-8.3125407696 4.2749135494 9.7574973032 0.7776455999 1
-0.7124769688 4.2749135494 0 -0 0
6.887586832 4.2749135494 0 -0 0
14.4876506329 4.2749135494 10.8621926463 0.9477940129 1
22.0877144337 4.2749135494 11.1016719684 0.6353629335 1
29.6877782345 4.2749135494 11.1192948983 0.2601757262 1
37.2878420353 4.2749135494 11.1756744324 0.0594876124 1
44.8879058361 4.2749135494 11.06244349 -0.2170652957 1
52.4879696369 4.2749135494 10.9600467802 -0.2857418724 1
60.0880334377 4.2749135494 10.7863215604 -0.3814159473 1
67.6880972385 4.2749135494 10.7679436317 -0.358523755 1
75.2881610394 4.2749135494 10.6152388363 -0.468300578 1
82.8882248402 4.2749135494 10.5554492244 -0.4840485942 1
90.488288641 4.2749135494 10.4565380923 -0.5678849174 1
98.0883524418 4.2749135494 0 -0 0
105.6884162426 4.2749135494 10.1615915264 -0.5477736373 1
113.2884800434 4.2749135494 9.9989144554 -0.4403750605 1
120.8885438442 4.2749135494 10.0092201888 -0.2739733289 1
128.488607645 4.2749135494 10.037004144 -0.2331750822 1
136.0886714458 4.2749135494 10.0211869195 -0.1933300215 1
143.6887352467 4.2749135494 10.0385833498 -0.129960457 1
151.2887990475 4.2749135494 10.0787178267 -0.1070116399 1
158.8888628483 4.2749135494 10.0538091586 -0.1617144475 1
166.4889266491 4.2749135494 0 -0 0
-23.5126683712 -3.3251502514 9.7505513144 0.4294244324 1
-15.9126045704 -3.3251502514 9.6019801373 0.5651102968 1
-8.3125407696 -3.3251502514 9.4582787025 0.7383919548 1
-0.7124769688 -3.3251502514 0 -0 0
6.887586832 -3.3251502514 0 -0 0
14.4876506329 -3.3251502514 0 -0 0
22.0877144337 -3.3251502514 0 -0 0
29.6877782345 -3.3251502514 0 -0 0
37.2878420353 -3.3251502514 0 -0 0
44.8879058361 -3.3251502514 0 -0 0
52.4879696369 -3.3251502514 0 -0 0
60.0880334377 -3.3251502514 0 -0 0
67.6880972385 -3.3251502514 10.7137976357 -0.529773208 1
75.2881610394 -3.3251502514 10.7111865982 -0.7192432982 1
82.8882248402 -3.3251502514 10.4939168237 -0.5673186683 1
90.488288641 -3.3251502514 10.4273699727 -0.7426451146 1
98.0883524418 -3.3251502514 0 -0 0
105.6884162426 -3.3251502514 10.0611515217 -0.6994812051 1
113.2884800434 -3.3251502514 9.8957501635 -0.6419031105 1
120.8885438442 -3.3251502514 9.7800466001 -0.2860281428 1
128.488607645 -3.3251502514 10.052097828 -0.1398383578 1
136.0886714458 -3.3251502514 9.9025514442 -0.3984915031 1
143.6887352467 -3.3251502514 9.8869229694 -0.1046333937 1
151.2887990475 -3.3251502514 10.1770564181 -0.0931574122 1
158.8888628483 -3.3251502514 9.9529287379 -0.3471987733 1
166.4889266491 -3.3251502514 0 -0 0
-23.5126683712 -10.9252140522 9.5706791462 0.2536292576 1
-15.9126045704 -10.9252140522 9.4684397277 0.2804914851 1
-8.3125407696 -10.9252140522 0 -0 0
-0.7124769688 -10.9252140522 0 -0 0
6.887586832 -10.9252140522 0 -0 0
14.4876506329 -10.9252140522 0 -0 0
22.0877144337 -10.9252140522 0 -0 0
29.6877782345 -10.9252140522 0 -0 0
37.2878420353 -10.9252140522 0 -0 0
44.8879058361 -10.9252140522 0 -0 0
52.4879696369 -10.9252140522 0 -0 0
60.0880334377 -10.9252140522 0 -0 0
67.6880972385 -10.9252140522 0 -0 0
75.2881610394 -10.9252140522 0 -0 0
82.8882248402 -10.9252140522 0 -0 0
90.488288641 -10.9252140522 0 -0 0
98.0883524418 -10.9252140522 0 -0 0
105.6884162426 -10.9252140522 0 -0 0
113.2884800434 -10.9252140522 0 -0 0
120.8885438442 -10.9252140522 8.6533052925 -0.2204030195 1
128.488607645 -10.9252140522 10.0819517382 0.2847006033 1
136.0886714458 -10.9252140522 9.4677036039 -1.1369212079 1
143.6887352467 -10.9252140522 9.3747632538 -0.7709858814 1
151.2887990475 -10.9252140522 9.7190678651 0.771781776 1
158.8888628483 -10.9252140522 9.792925621 -1.0798432999 1
166.4889266491 -10.9252140522 0 -0 0
-23.5126683712 -18.525277853 9.6217548138 0.032549885 1
-15.9126045704 -18.525277853 9.3938584314 -0.022017652 1
-8.3125407696 -18.525277853 8.8867823743 -0.0703155533 1
-0.7124769688 -18.525277853 0 -0 0
6.887586832 -18.525277853 0 -0 0
14.4876506329 -18.525277853 0 -0 0
22.0877144337 -18.525277853 0 -0 0
29.6877782345 -18.525277853 0 -0 0
37.2878420353 -18.525277853 0 -0 0
44.8879058361 -18.525277853 0 -0 0
52.4879696369 -18.525277853 0 -0 0
60.0880334377 -18.525277853 0 -0 0
67.6880972385 -18.525277853 0 -0 0
75.2881610394 -18.525277853 0 -0 0
82.8882248402 -18.525277853 0 -0 0
90.488288641 -18.525277853 0 -0 0
98.0883524418 -18.525277853 0 -0 0
105.6884162426 -18.525277853 0 -0 0
113.2884800434 -18.525277853 8.5405336411 -0.8451959701 1
120.8885438442 -18.525277853 10.3920989462 0.0617903587 1
128.488607645 -18.525277853 8.4618690596 -0.0029413494 1
136.0886714458 -18.525277853 9.095036205 -1.1684140946 1
143.6887352467 -18.525277853 10.3395069894 0.4074665511 1
151.2887990475 -18.525277853 9.2907948059 1.361690637 1
158.8888628483 -18.525277853 9.5165268585 -0.9716865785 1
166.4889266491 -18.525277853 0 -0 0
-23.5126683712 -26.1253416538 9.7324628019 -0.1383944226 1
-15.9126045704 -26.1253416538 9.5156774849 -0.2677036932 1
-8.3125407696 -26.1253416538 9.3433364295 -0.5640344236 1
-0.7124769688 -26.1253416538 9.3668106 -1.1646579756 1
6.887586832 -26.1253416538 10.2077848685 -1.8163571953 1
14.4876506329 -26.1253416538 11.0370503643 -1.505517905 1
22.0877144337 -26.1253416538 11.5030985292 -0.9771571739 1
29.6877782345 -26.1253416538 0 -0 0
37.2878420353 -26.1253416538 0 -0 0
44.8879058361 -26.1253416538 0 -0 0
52.4879696369 -26.1253416538 0 -0 0
60.0880334377 -26.1253416538 0 -0 0
67.6880972385 -26.1253416538 0 -0 0
75.2881610394 -26.1253416538 10.7138479689 0.6790427589 1
82.8882248402 -26.1253416538 10.5854667177 0.6629487015 1
90.488288641 -26.1253416538 10.3694175245 0.7607587938 1
98.0883524418 -26.1253416538 10.1959880126 0.839061605 1
105.6884162426 -26.1253416538 9.9141658421 0.8925721436 1
113.2884800434 -26.1253416538 9.4898376516 0.3070517131 1
120.8885438442 -26.1253416538 9.9773529485 0.2091692668 1
128.488607645 -26.1253416538 9.6828216319 0.2583322708 1
136.0886714458 -26.1253416538 9.9256984485 -0.1732187414 1
143.6887352467 -26.1253416538 10.2665174821 0.1340783462 1
151.2887990475 -26.1253416538 9.7621657123 0.2395013429 1
158.8888628483 -26.1253416538 9.9306248156 -0.0780511449 1
166.4889266491 -26.1253416538 0 -0 0
-23.5126683712 -33.7254054546 9.7967006149 -0.2378309081 1
-15.9126045704 -33.7254054546 9.6892957465 -0.403512245 1
-8.3125407696 -33.7254054546 9.6817017171 -0.6189448558 1
-0.7124769688 -33.7254054546 9.8598059298 -0.8890960034 1
6.887586832 -33.7254054546 10.2823535816 -1.0281699249 1
14.4876506329 -33.7254054546 10.7878000997 -1.0010623228 1
22.0877144337 -33.7254054546 11.0023896285 -0.8530353741 1
29.6877782345 -33.7254054546 11.1392709077 -0.4357569846 1
37.2878420353 -33.7254054546 11.1635126603 -0.163683736 1
44.8879058361 -33.7254054546 11.0896674877 0.0255913129 1
52.4879696369 -33.7254054546 11.002125379 0.1759272996 1
60.0880334377 -33.7254054546 10.8858492748 0.1874756351 1
67.6880972385 -33.7254054546 10.8306022389 0.40451891 1
75.2881610394 -33.7254054546 10.6423055427 0.5669065648 1
82.8882248402 -33.7254054546 10.5313899299 0.6618948491 1
90.488288641 -33.7254054546 10.3160831522 0.5285117309 1
98.0883524418 -33.7254054546 10.2202738067 0.5897956112 1
105.6884162426 -33.7254054546 10.0848333168 0.6028099027 1
113.2884800434 -33.7254054546 9.8750191553 0.3916713474 1
120.8885438442 -33.7254054546 9.9267680301 0.2614183283 1
128.488607645 -33.7254054546 9.9360796818 0.10488506 1
136.0886714458 -33.7254054546 9.9205959151 0.0250974179 1
143.6887352467 -33.7254054546 10.0310899869 0.0814675144 1
151.2887990475 -33.7254054546 9.9520416144 0.0493895037 1
158.8888628483 -33.7254054546 9.8580002244 -0.0276298096 1
166.4889266491 -33.7254054546 0 -0 0
-23.5126683712 -41.3254692554 9.8387288805 -0.3089077517 1
-15.9126045704 -41.3254692554 9.9108186809 -0.3435999458 1
-8.3125407696 -41.3254692554 9.884897056 -0.5132764846 1
-0.7124769688 -41.3254692554 10.1156246838 -0.6766802419 1
6.887586832 -41.3254692554 10.3322401261 -0.7275891806 1
14.4876506329 -41.3254692554 10.5322330119 -0.7341733991 1
22.0877144337 -41.3254692554 10.7130363452 -0.522921594 1
29.6877782345 -41.3254692554 11.0656019016 -0.2928923401 1
37.2878420353 -41.3254692554 10.936786526 -0.1839869116 1
44.8879058361 -41.3254692554 10.9769335863 -0.0345600693 1
52.4879696369 -41.3254692554 10.928708039 0.165404504 1
60.0880334377 -41.3254692554 10.7349501849 0.2136803845 1
67.6880972385 -41.3254692554 10.5829626384 0.3608831262 1
75.2881610394 -41.3254692554 10.6229649905 0.4760204405 1
82.8882248402 -41.3254692554 10.4656421193 0.5665101904 1
90.488288641 -41.3254692554 10.4016433892 0.5268161294 1
98.0883524418 -41.3254692554 10.2463023897 0.4417812458 1
105.6884162426 -41.3254692554 10.0669209707 0.3950216545 1
113.2884800434 -41.3254692554 10.0703247569 0.3047238002 1
120.8885438442 -41.3254692554 10.0036583644 0.2342132056 1
128.488607645 -41.3254692554 9.9465364149 0.1816464153 1
136.0886714458 -41.3254692554 10.0802718659 0.0973445097 1
143.6887352467 -41.3254692554 10.0468631698 0.0586130721 1
151.2887990475 -41.3254692554 10.0597107324 0.0935003075 1
158.8888628483 -41.3254692554 10.0848207335 0.0760692731 1
166.4889266491 -41.3254692554 0 -0 0
-23.5126683712 -48.9255330563 9.9916790504 -0.2741054537 1
-15.9126045704 -48.9255330563 9.9935980057 -0.26300068 1
-8.3125407696 -48.9255330563 10.095050967 -0.3597380448 1
-0.7124769688 -48.9255330563 10.19654797 -0.425127231 1
6.887586832 -48.9255330563 10.3702480231 -0.4842090315 1
14.4876506329 -48.9255330563 10.4933128246 -0.5262593178 1
22.0877144337 -48.9255330563 10.6306785614 -0.3960283196 1
29.6877782345 -48.9255330563 10.7347173936 -0.3546795529 1
37.2878420353 -48.9255330563 10.8622744379 -0.2220954751 1
44.8879058361 -48.9255330563 10.810928229 -0.0457623637 1
52.4879696369 -48.9255330563 10.7455579178 0.1138160664 1
60.0880334377 -48.9255330563 10.7333206459 0.2569323772 1
67.6880972385 -48.9255330563 10.6554928547 0.3041418219 1
75.2881610394 -48.9255330563 10.5428784947 0.2528050506 1
82.8882248402 -48.9255330563 10.4541913044 0.3593353787 1
90.488288641 -48.9255330563 10.3739349339 0.3448016522 1
98.0883524418 -48.9255330563 10.2784590462 0.3935556985 1
105.6884162426 -48.9255330563 10.1888092325 0.3837910476 1
113.2884800434 -48.9255330563 10.0668140126 0.3305070086 1
120.8885438442 -48.9255330563 10.1087982365 0.1691165814 1
128.488607645 -48.9255330563 10.1017704562 0.1719226602 1
136.0886714458 -48.9255330563 10.0560615716 0.1087607204 1
143.6887352467 -48.9255330563 10.1916153113 0.1403951694 1
151.2887990475 -48.9255330563 10.0932893032 0.1042684777 1
158.8888628483 -48.9255330563 10.0518021201 -0.0069491346 1
166.4889266491 -48.9255330563 0 -0 0
-23.5126683712 -56.5255968571 10.1124033557 -0.2849837278 1
-15.9126045704 -56.5255968571 10.0636933509 -0.3345934395 1
-8.3125407696 -56.5255968571 10.1523427913 -0.3630946435 1
-0.7124769688 -56.5255968571 10.2622391557 -0.3819004048 1
6.887586832 -56.5255968571 10.3375125343 -0.3364494782 1
14.4876506329 -56.5255968571 10.4550469697 -0.3273108471 1
22.0877144337 -56.5255968571 10.5368573794 -0.3536540129 1
29.6877782345 -56.5255968571 10.6302570204 -0.1805013339 1
37.2878420353 -56.5255968571 10.6748396985 -0.1513457976 1
44.8879058361 -56.5255968571 10.7399080102 -0.0040801393 1
52.4879696369 -56.5255968571 10.6273125252 0.1437423306 1
60.0880334377 -56.5255968571 10.6209831187 0.1472876791 1
67.6880972385 -56.5255968571 10.579049228 0.2243730548 1
75.2881610394 -56.5255968571 10.5521398131 0.3184490489 1
82.8882248402 -56.5255968571 10.5260294385 0.1749646761 1
90.488288641 -56.5255968571 10.4087403777 0.3763354347 1
98.0883524418 -56.5255968571 10.2376387787 0.2578603966 1
105.6884162426 -56.5255968571 10.2008955046 0.2922191328 1
113.2884800434 -56.5255968571 10.2111446131 0.2755116389 1
120.8885438442 -56.5255968571 10.1008015411 0.2259931563 1
128.488607645 -56.5255968571 10.1434715556 0.1873372187 1
136.0886714458 -56.5255968571 10.09939221 0.0491661499 1
143.6887352467 -56.5255968571 10.0345944395 0.0975238219 1
151.2887990475 -56.5255968571 10.1322472404 0.185682513 1
158.8888628483 -56.5255968571 10.1316558247 0.0686828684 1
166.4889266491 -56.5255968571 0 -0 0
-23.5126683712 -64.1256606579 10.0899610169 -0.2314889183 1
-15.9126045704 -64.1256606579 10.1270251655 -0.2081405809 1
-8.3125407696 -64.1256606579 10.2149636486 -0.2942041505 1
-0.7124769688 -64.1256606579 10.2915394001 -0.3309820286 1
6.887586832 -64.1256606579 10.3645163241 -0.3060387564 1
14.4876506329 -64.1256606579 10.4317112157 -0.2936850888 1
22.0877144337 -64.1256606579 10.4517816 -0.2631013465 1
29.6877782345 -64.1256606579 10.5965651998 -0.1779626505 1
37.2878420353 -64.1256606579 10.6228139908 -0.1545262299 1
44.8879058361 -64.1256606579 10.5354983816 -0.0550048071 1
52.4879696369 -64.1256606579 10.5395376251 0.0303320761 1
60.0880334377 -64.1256606579 10.5579470121 0.0431670554 1
67.6880972385 -64.1256606579 10.4775270584 0.1401340656 1
75.2881610394 -64.1256606579 10.5309935555 0.0956551999 1
82.8882248402 -64.1256606579 10.389116701 0.2571871893 1
90.488288641 -64.1256606579 10.3645666573 0.2496686598 1
98.0883524418 -64.1256606579 10.3078662488 0.2127680943 1
105.6884162426 -64.1256606579 10.339771239 0.2472180596 1
113.2884800434 -64.1256606579 10.1929868924 0.1874190102 1
120.8885438442 -64.1256606579 10.1335055717 0.136060218 1
128.488607645 -64.1256606579 10.1723817173 0.1291991666 1
136.0886714458 -64.1256606579 10.1327505729 0.1494677381 1
143.6887352467 -64.1256606579 10.1239988787 0.0939029735 1
151.2887990475 -64.1256606579 10.0829961531 0.0683651397 1
158.8888628483 -64.1256606579 10.2149510653 0.0120453764 1
166.4889266491 -64.1256606579 0 -0 0
-23.5126683712 -71.7257244587 10.1545008295 -0.1811902702 1
-15.9126045704 -71.7257244587 10.2328193698 -0.1622051967 1
-8.3125407696 -71.7257244587 10.2479382204 -0.160037721 1
-0.7124769688 -71.7257244587 10.2701351846 -0.1845028274 1
6.887586832 -71.7257244587 10.3578031266 -0.2596786853 1
14.4876506329 -71.7257244587 10.390563782 -0.218122294 1
22.0877144337 -71.7257244587 10.4250231848 -0.1653069834 1
29.6877782345 -71.7257244587 10.5169883281 -0.1726210341 1
37.2878420353 -71.7257244587 10.5121563359 -0.0418143492 1
44.8879058361 -71.7257244587 10.5252115232 -0.038961083 1
52.4879696369 -71.7257244587 10.5408022481 -0.0077827791 1
60.0880334377 -71.7257244587 10.4164413653 0.0326694265 1
67.6880972385 -71.7257244587 10.5475028622 0.1757070916 1
75.2881610394 -71.7257244587 10.4041789268 0.1431288941 1
82.8882248402 -71.7257244587 10.4386320378 0.1687327903 1
90.488288641 -71.7257244587 10.4162903656 0.1702459337 1
98.0883524418 -71.7257244587 10.3054187944 0.2277611118 1
105.6884162426 -71.7257244587 10.2357575734 0.2175403158 1
113.2884800434 -71.7257244587 10.2246842579 0.2140641756 1
120.8885438442 -71.7257244587 10.1952015555 0.1085814082 1
128.488607645 -71.7257244587 10.1129192715 0.1167259576 1
136.0886714458 -71.7257244587 10.1755967538 0.1535698981 1
143.6887352467 -71.7257244587 10.1376832316 0.1241343831 1
151.2887990475 -71.7257244587 10.1546266626 0.1204380349 1
158.8888628483 -71.7257244587 10.1508957103 0.0150999756 1
166.4889266491 -71.7257244587 0 -0 0
-23.5126683712 -79.3257882595 10.1690093894 -0.0971840724 1
-15.9126045704 -79.3257882595 10.1417098918 -0.1946544152 1
-8.3125407696 -79.3257882595 10.2500773836 -0.2103300774 1
-0.7124769688 -79.3257882595 10.2874875733 -0.2468216852 1
6.887586832 -79.3257882595 10.2302649573 -0.1629570497 1
14.4876506329 -79.3257882595 10.3335487907 -0.0854092372 1
22.0877144337 -79.3257882595 10.4035497611 -0.1597388673 1
29.6877782345 -79.3257882595 10.4014420562 -0.0206240501 1
37.2878420353 -79.3257882595 10.5308362641 -0.0884103574 1
44.8879058361 -79.3257882595 10.5000197305 -0.0140146649 1
52.4879696369 -79.3257882595 10.4992458567 0.069862554 1
60.0880334377 -79.3257882595 10.4599670451 0.059292571 1
67.6880972385 -79.3257882595 10.437291915 0.0652381864 1
75.2881610394 -79.3257882595 10.387927578 0.131646621 1
82.8882248402 -79.3257882595 10.373016352 0.0733890275 1
90.488288641 -79.3257882595 10.3760426388 0.1859813667 1
98.0883524418 -79.3257882595 10.3077781656 0.1255059642 1
105.6884162426 -79.3257882595 10.2490895936 0.1970263697 1
113.2884800434 -79.3257882595 10.2093640743 0.1353712817 1
120.8885438442 -79.3257882595 10.1984920919 0.1059168917 1
128.488607645 -79.3257882595 10.2635792785 0.1763897363 1
136.0886714458 -79.3257882595 10.1922948102 0.0840376561 1
143.6887352467 -79.3257882595 10.1541547884 0.0207215707 1
151.2887990475 -79.3257882595 10.1510341267 0.0750657539 1
158.8888628483 -79.3257882595 10.1759616699 -0.0638068346 1
166.4889266491 -79.3257882595 0 -0 0
-23.5126683712 -86.9258520603 10.2302272073 -0.102925209 1
-15.9126045704 -86.9258520603 10.2321839125 -0.0299765975 1
-8.3125407696 -86.9258520603 10.2328759947 -0.1872271147 1
-0.7124769688 -86.9258520603 10.2899224444 -0.1841536405 1
6.887586832 -86.9258520603 10.361458579 -0.1567692055 1
14.4876506329 -86.9258520603 10.3360906199 -0.1817659568 1
22.0877144337 -86.9258520603 10.3652776145 -0.0888256067 1
29.6877782345 -86.9258520603 10.4000264335 -0.1598584088 1
37.2878420353 -86.9258520603 10.4342593366 -0.1170688528 1
44.8879058361 -86.9258520603 10.4791188475 -0.0318798236 1
52.4879696369 -86.9258520603 10.4110179574 -0.0476341315 1
60.0880334377 -86.9258520603 10.3441942735 -0.0446833446 1
67.6880972385 -86.9258520603 10.4695932796 0.0467124038 1
75.2881610394 -86.9258520603 10.4087403777 0.0660026227 1
82.8882248402 -86.9258520603 10.3330832081 0.0608340269 1
90.488288641 -86.9258520603 10.3473401018 0.0918550393 1
98.0883524418 -86.9258520603 10.3189647309 0.1192740784 1
105.6884162426 -86.9258520603 10.440790076 0.1522140462 1
113.2884800434 -86.9258520603 10.2923887737 0.127525586 1
120.8885438442 -86.9258520603 10.1690030977 0.1032838334 1
128.488607645 -86.9258520603 10.1814291194 0.0729108616 1
136.0886714458 -86.9258520603 10.1376077317 0.09971961 1
143.6887352467 -86.9258520603 10.1499142119 0.0175820341 1
151.2887990475 -86.9258520603 10.1890860654 0.0251634802 1
158.8888628483 -86.9258520603 10.2215635963 0.0335439667 1
166.4889266491 -86.9258520603 0 -0 0
-23.5126683712 -94.5259158611 10.1783839576 -0.0191801149 1
-15.9126045704 -94.5259158611 10.2914009837 -0.0688747639 1
-8.3125407696 -94.5259158611 10.2223060118 -0.1252920479 1
-0.7124769688 -94.5259158611 10.3350587882 -0.1193338492 1
6.887586832 -94.5259158611 10.3333726243 -0.1265786917 1
14.4876506329 -94.5259158611 10.3400921135 -0.1195351822 1
22.0877144337 -94.5259158611 10.4687879475 -0.1275224401 1
29.6877782345 -94.5259158611 10.3659634051 -0.0674843078 1
37.2878420353 -94.5259158611 10.3664352793 -0.0745938797 1
44.8879058361 -94.5259158611 10.3066016258 -0.0495342118 1
52.4879696369 -94.5259158611 10.4336427542 0.0306120548 1
60.0880334377 -94.5259158611 10.3556199217 -0.0037749939 1
67.6880972385 -94.5259158611 10.3583316257 0.0381431676 1
75.2881610394 -94.5259158611 10.3886070769 0.0561373053 1
82.8882248402 -94.5259158611 10.3619933698 0.0227254633 1
90.488288641 -94.5259158611 10.3245517219 0.1124759436 1
98.0883524418 -94.5259158611 10.343653191 0.0764467725 1
105.6884162426 -94.5259158611 10.3067589172 0.0706615944 1
113.2884800434 -94.5259158611 10.3127234076 0.0990212361 1
120.8885438442 -94.5259158611 10.1999265895 0.0976999882 1
128.488607645 -94.5259158611 10.1975986766 0.1269436077 1
136.0886714458 -94.5259158611 10.2388216101 -0.0039952019 1
143.6887352467 -94.5259158611 10.1488446303 0.0114728357 1
151.2887990475 -94.5259158611 10.2038462915 0.0053101581 1
158.8888628483 -94.5259158611 10.2731425964 0.0830781785 1
166.4889266491 -94.5259158611 0 -0 0
-23.5126683712 -102.1259796619 10.2306990816 0.018793178 1
-15.9126045704 -102.1259796619 10.2345810336 -0.121900845 1
-8.3125407696 -102.1259796619 10.2535377947 -0.0474327985 1
-0.7124769688 -102.1259796619 10.2705630173 -0.0829366162 1
6.887586832 -102.1259796619 10.3199839792 -0.1067757028 1
14.4876506329 -102.1259796619 10.3721984367 -0.0584463432 1
22.0877144337 -102.1259796619 10.3878080365 -0.0471370906 1
29.6877782345 -102.1259796619 10.4038643439 -0.0715707387 1
37.2878420353 -102.1259796619 10.3671525281 -0.0506258142 1
44.8879058361 -102.1259796619 10.4043299265 -0.0531582059 1
52.4879696369 -102.1259796619 10.3593508741 -0.0361707333 1
60.0880334377 -102.1259796619 10.3016752588 0.0178274087 1
67.6880972385 -102.1259796619 10.4467356914 0.0053919496 1
75.2881610394 -102.1259796619 10.3284273823 0.0305837423 1
82.8882248402 -102.1259796619 10.346585103 0.0305365549 1
90.488288641 -102.1259796619 10.3265965102 0.1218221993 1
98.0883524418 -102.1259796619 10.2914764835 0.0418867033 1
105.6884162426 -102.1259796619 10.2755397176 0.0931102248 1
113.2884800434 -102.1259796619 10.2283397104 0.0584054475 1
120.8885438442 -102.1259796619 10.254374585 0.0810050777 1
128.488607645 -102.1259796619 10.2297679164 0.0221309018 1
136.0886714458 -102.1259796619 10.2592632022 -0.0297438062 1
143.6887352467 -102.1259796619 10.1836374908 -0.0595285081 1
151.2887990475 -102.1259796619 10.1628058161 -0.0519156038 1
158.8888628483 -102.1259796619 10.2213559716 -0.0690792427 1
166.4889266491 -102.1259796619 0 -0 0
-23.5126683712 -109.7260434628 0 -0 0
-15.9126045704 -109.7260434628 0 -0 0
-8.3125407696 -109.7260434628 0 -0 0
-0.7124769688 -109.7260434628 0 -0 0
6.887586832 -109.7260434628 0 -0 0
14.4876506329 -109.7260434628 0 -0 0
22.0877144337 -109.7260434628 0 -0 0
29.6877782345 -109.7260434628 0 -0 0
37.2878420353 -109.7260434628 0 -0 0
44.8879058361 -109.7260434628 0 -0 0
52.4879696369 -109.7260434628 0 -0 0
60.0880334377 -109.7260434628 0 -0 0
67.6880972385 -109.7260434628 0 -0 0
75.2881610394 -109.7260434628 0 -0 0
82.8882248402 -109.7260434628 0 -0 0
90.488288641 -109.7260434628 0 -0 0
98.0883524418 -109.7260434628 0 -0 0
105.6884162426 -109.7260434628 0 -0 0
113.2884800434 -109.7260434628 0 -0 0
120.8885438442 -109.7260434628 0 -0 0
128.488607645 -109.7260434628 0 -0 0
136.0886714458 -109.7260434628 0 -0 0
143.6887352467 -109.7260434628 0 -0 0
151.2887990475 -109.7260434628 0 -0 0
158.8888628483 -109.7260434628 0 -0 0
166.4889266491 -109.7260434628 0 -0 0
