TITLE = "B00007"
VARIABLES = "x", "y", "Vx", "Vy", "isValid"
ZONE T="Frame 0", I=26, J=20, F=POINT
-23.5126683712 34.6751687527 10.146101468 0.3541133038 1
-15.9126045704 34.6751687527 10.0608495222 0.3246400389 1
-8.3125407696 34.6751687527 0 -0 0
-0.7124769688 34.6751687527 0 -0 0
6.887586832 34.6751687527 0 -0 0
14.4876506329 34.6751687527 0 -0 0
22.0877144337 34.6751687527 10.6138483802 0.2922600286 1
29.6877782345 34.6751687527 10.6012965255 0.2701008143 1
37.2878420353 34.6751687527 10.5911480835 0.263073034 1
44.8879058361 34.6751687527 10.5453196574 0.1230585098 1
52.4879696369 34.6751687527 10.4969745687 0.0920878306 1
60.0880334377 34.6751687527 10.5676235798 0.0332671338 1
67.6880972385 34.6751687527 10.5685799116 -0.1002575466 1
75.2881610394 34.6751687527 10.4604074611 -0.2133343434 1
82.8882248402 34.6751687527 10.3982018531 -0.2072282907 1
90.488288641 34.6751687527 0 -0 0
98.0883524418 34.6751687527 0 -0 0
105.6884162426 34.6751687527 10.2480325953 -0.153846731 1
113.2884800434 34.6751687527 10.2325865785 -0.1693273519 1
120.8885438442 34.6751687527 10.2334799938 -0.1654548373 1
128.488607645 34.6751687527 10.1921941437 -0.1292086041 1
136.0886714458 34.6751687527 10.1712680941 -0.0273341017 1
143.6887352467 34.6751687527 10.1296047446 -0.0613090469 1
151.2887990475 34.6751687527 10.0612773548 -0.0763586893 1
158.8888628483 34.6751687527 10.2815922911 0.0841918017 1
166.4889266491 34.6751687527 0 -0 0
-23.5126683712 27.0751049519 9.9883633474 0.4154789757 1
-15.9126045704 27.0751049519 10.0847452337 0.4071142183 1
-8.3125407696 27.0751049519 10.214699399 0.4259420005 1
-0.7124769688 27.0751049519 0 -0 0
6.887586832 27.0751049519 0 -0 0
14.4876506329 27.0751049519 0 -0 0
22.0877144337 27.0751049519 10.6183091647 0.3025343037 1
29.6877782345 27.0751049519 10.7304453588 0.2926626946 1
37.2878420353 27.0751049519 10.6843275165 0.2088892881 1
44.8879058361 27.0751049519 10.6776772356 0.1918388989 1
52.4879696369 27.0751049519 10.6506860291 -0.0311059498 1
60.0880334377 27.0751049519 10.6334846402 -0.1831092255 1
67.6880972385 27.0751049519 10.5594381347 -0.049512191 1
75.2881610394 27.0751049519 10.5101178392 -0.2455790831 1
82.8882248402 27.0751049519 10.4463707754 -0.1832130378 1
90.488288641 27.0751049519 0 -0 0
98.0883524418 27.0751049519 0 -0 0
105.6884162426 27.0751049519 10.2656303586 -0.2035759841 1
113.2884800434 27.0751049519 10.2287172098 -0.2019275701 1
120.8885438442 27.0751049519 10.0948370507 -0.194676436 1
128.488607645 27.0751049519 10.1523994162 -0.1247729862 1
136.0886714458 27.0751049519 10.1416218086 -0.0834776987 1
143.6887352467 27.0751049519 10.0821782378 -0.1502762159 1
151.2887990475 27.0751049519 10.1324359901 -0.1246754656 1
158.8888628483 27.0751049519 10.0792903675 -0.0967279273 1
166.4889266491 27.0751049519 0 -0 0
-23.5126683712 19.475041151 10.0750623743 0.3735733974 1
-15.9126045704 19.475041151 10.1885953161 0.4815413691 1
-8.3125407696 19.475041151 10.1605345281 0.453902122 1
-0.7124769688 19.475041151 0 -0 0
6.887586832 19.475041151 0 -0 0
14.4876506329 19.475041151 10.5839189702 0.4748785049 1
22.0877144337 19.475041151 10.7385867624 0.364843724 1
29.6877782345 19.475041151 10.7747449124 0.2849208113 1
37.2878420353 19.475041151 10.8961675915 0.1216932204 1
44.8879058361 19.475041151 10.8049700303 -0.0654395194 1
52.4879696369 19.475041151 10.8057501957 -0.0992886315 1
60.0880334377 19.475041151 10.7191895853 -0.2115852629 1
67.6880972385 19.475041151 10.5981884472 -0.1457588066 1
75.2881610394 19.475041151 10.608412389 -0.2596157687 1
82.8882248402 19.475041151 10.4592246296 -0.2049129611 1
90.488288641 19.475041151 10.4073876716 -0.1905711301 1
98.0883524418 19.475041151 0 -0 0
105.6884162426 19.475041151 10.2219410957 -0.2789877792 1
113.2884800434 19.475041151 10.2179081439 -0.2473501844 1
120.8885438442 19.475041151 10.123187255 -0.2408477574 1
128.488607645 19.475041151 10.0658199308 -0.1973220776 1
136.0886714458 19.475041151 10.1078985296 -0.1471146585 1
143.6887352467 19.475041151 10.1533934979 -0.1223821568 1
151.2887990475 19.475041151 10.1050924508 -0.0462656962 1
158.8888628483 19.475041151 10.1197583022 -0.0020762467 1
166.4889266491 19.475041151 0 -0 0
-23.5126683712 11.8749773502 9.9085851428 0.4767062311 1
-15.9126045704 11.8749773502 10.0251632464 0.5444516427 1
-8.3125407696 11.8749773502 10.0706456314 0.6256328867 1
-0.7124769688 11.8749773502 0 -0 0
6.887586832 11.8749773502 0 -0 0
14.4876506329 11.8749773502 10.630703728 0.7858341908 1
22.0877144337 11.8749773502 10.915482977 0.5106623013 1
29.6877782345 11.8749773502 10.9536670404 0.3012224933 1
37.2878420353 11.8749773502 10.9987027178 0.0185761159 1
44.8879058361 11.8749773502 10.939076689 -0.0296274105 1
52.4879696369 11.8749773502 10.8422040536 -0.0734959856 1
60.0880334377 11.8749773502 10.8540197845 -0.2797144655 1
67.6880972385 11.8749773502 10.7201962504 -0.2361919315 1
75.2881610394 11.8749773502 10.6137414221 -0.4639656266 1
82.8882248402 11.8749773502 10.502391685 -0.4333095303 1
90.488288641 11.8749773502 10.4020900968 -0.4919697898 1
98.0883524418 11.8749773502 0 -0 0
105.6884162426 11.8749773502 10.2487624274 -0.4435554929 1
113.2884800434 11.8749773502 10.1351917356 -0.3607289807 1
120.8885438442 11.8749773502 10.0713502969 -0.2729603722 1
128.488607645 11.8749773502 10.070891006 -0.2814698377 1
136.0886714458 11.8749773502 10.0483165424 -0.1993794492 1
143.6887352467 11.8749773502 10.0599749819 -0.0984046538 1
151.2887990475 11.8749773502 10.0538594918 -0.1310614969 1
158.8888628483 11.8749773502 10.1294726198 -0.0928774335 1
166.4889266491 11.8749773502 0 -0 0
-23.5126683712 4.2749135494 9.9007268638 0.473484903 1
-15.9126045704 4.2749135494 9.8876779682 0.5466820349 1
-8.3125407696 4.2749135494 9.8541560223 0.7188374864 1
-0.7124769688 4.2749135494 0 -0 0
6.887586832 4.2749135494 0 -0 0
14.4876506329 4.2749135494 10.8162195121 0.9510656743 1
22.0877144337 4.2749135494 11.1307582965 0.6629738681 1
29.6877782345 4.2749135494 11.2634367491 0.3107669362 1
37.2878420353 4.2749135494 11.254024431 0.123917321 1
44.8879058361 4.2749135494 11.1045975887 -0.0812158482 1
52.4879696369 4.2749135494 11.0539497537 -0.2520248852 1
60.0880334377 4.2749135494 10.8349183153 -0.3875188541 1
67.6880972385 4.2749135494 10.7869066844 -0.5086835753 1
75.2881610394 4.2749135494 10.6366870934 -0.4996204441 1
82.8882248402 4.2749135494 10.6285708565 -0.6114326179 1
90.488288641 4.2749135494 10.3766277629 -0.5516052561 1
98.0883524418 4.2749135494 0 -0 0
105.6884162426 4.2749135494 10.1117616067 -0.5676647094 1
113.2884800434 4.2749135494 10.0678018027 -0.4273733523 1
120.8885438442 4.2749135494 9.9737289544 -0.3387333495 1
128.488607645 4.2749135494 9.9935350891 -0.2303312535 1
136.0886714458 4.2749135494 10.005571028 -0.1615603019 1
143.6887352467 4.2749135494 9.9921760913 -0.1901684641 1
151.2887990475 4.2749135494 9.9947808371 -0.0113784608 1
158.8888628483 4.2749135494 10.058892817 -0.1043062276 1
166.4889266491 4.2749135494 0 -0 0
-23.5126683712 -3.3251502514 9.7845514262 0.3628870188 1
-15.9126045704 -3.3251502514 9.6807076354 0.5318777671 1
-8.3125407696 -3.3251502514 9.802671397 0.8466210303 1
-0.7124769688 -3.3251502514 0 -0 0
6.887586832 -3.3251502514 0 -0 0
14.4876506329 -3.3251502514 0 -0 0
22.0877144337 -3.3251502514 0 -0 0
29.6877782345 -3.3251502514 0 -0 0
37.2878420353 -3.3251502514 0 -0 0
44.8879058361 -3.3251502514 0 -0 0
52.4879696369 -3.3251502514 0 -0 0
60.0880334377 -3.3251502514 0 -0 0
67.6880972385 -3.3251502514 10.7445135028 -0.666604154 1
75.2881610394 -3.3251502514 10.6873978449 -0.6085164352 1
82.8882248402 -3.3251502514 10.6332644322 -0.6379267835 1
90.488288641 -3.3251502514 10.4700336955 -0.6955835239 1
98.0883524418 -3.3251502514 0 -0 0
105.6884162426 -3.3251502514 10.0048474875 -0.7099159174 1
113.2884800434 -3.3251502514 10.0093711886 -0.510520739 1
120.8885438442 -3.3251502514 9.8958948716 -0.4557833273 1
128.488607645 -3.3251502514 9.8461907851 -0.2349524752 1
136.0886714458 -3.3251502514 10.1259304172 -0.1406059399 1
143.6887352467 -3.3251502514 9.9559990663 -0.310386291 1
151.2887990475 -3.3251502514 9.9387725108 -0.0760063566 1
158.8888628483 -3.3251502514 10.2713054327 -0.1607864282 1
166.4889266491 -3.3251502514 0 -0 0
-23.5126683712 -10.9252140522 9.7101903378 0.2182072314 1
-15.9126045704 -10.9252140522 9.5370942837 0.3618331664 1
-8.3125407696 -10.9252140522 0 -0 0
-0.7124769688 -10.9252140522 0 -0 0
6.887586832 -10.9252140522 0 -0 0
14.4876506329 -10.9252140522 0 -0 0
22.0877144337 -10.9252140522 0 -0 0
29.6877782345 -10.9252140522 0 -0 0
37.2878420353 -10.9252140522 0 -0 0
44.8879058361 -10.9252140522 0 -0 0
52.4879696369 -10.9252140522 0 -0 0
60.0880334377 -10.9252140522 0 -0 0
67.6880972385 -10.9252140522 0 -0 0
75.2881610394 -10.9252140522 0 -0 0
82.8882248402 -10.9252140522 0 -0 0
90.488288641 -10.9252140522 0 -0 0
98.0883524418 -10.9252140522 0 -0 0
105.6884162426 -10.9252140522 0 -0 0
113.2884800434 -10.9252140522 0 -0 0
120.8885438442 -10.9252140522 9.8804111049 -1.1983718171 1
128.488607645 -10.9252140522 9.1017053609 -0.4341872163 1
136.0886714458 -10.9252140522 10.4502904774 0.8979892599 1
143.6887352467 -10.9252140522 9.7375212937 -1.1847220683 1
151.2887990475 -10.9252140522 9.5605684541 -0.8144329155 1
158.8888628483 -10.9252140522 10.4246582687 -0.268842483 1
166.4889266491 -10.9252140522 0 -0 0
-23.5126683712 -18.525277853 9.6229313535 0.1259652552 1
-15.9126045704 -18.525277853 9.4145579813 0.0963567196 1
-8.3125407696 -18.525277853 9.0379708804 -0.1413106054 1
-0.7124769688 -18.525277853 0 -0 0
6.887586832 -18.525277853 0 -0 0
14.4876506329 -18.525277853 0 -0 0
22.0877144337 -18.525277853 0 -0 0
29.6877782345 -18.525277853 0 -0 0
37.2878420353 -18.525277853 0 -0 0
44.8879058361 -18.525277853 0 -0 0
52.4879696369 -18.525277853 0 -0 0
60.0880334377 -18.525277853 0 -0 0
67.6880972385 -18.525277853 0 -0 0
75.2881610394 -18.525277853 0 -0 0
82.8882248402 -18.525277853 0 -0 0
90.488288641 -18.525277853 0 -0 0
98.0883524418 -18.525277853 0 -0 0
105.6884162426 -18.525277853 0 -0 0
113.2884800434 -18.525277853 8.7566709175 2.2435386521 1
120.8885438442 -18.525277853 8.7413381505 -1.1124089141 1
128.488607645 -18.525277853 9.9971905415 -0.9822722906 1
136.0886714458 -18.525277853 8.9945647421 1.4717002512 1
143.6887352467 -18.525277853 9.4433863515 -1.4127820337 1
151.2887990475 -18.525277853 10.507173344 -0.2563283782 1
158.8888628483 -18.525277853 8.8188073172 1.0063032727 1
166.4889266491 -18.525277853 0 -0 0
-23.5126683712 -26.1253416538 9.7006710615 -0.1685125824 1
-15.9126045704 -26.1253416538 9.5642805315 -0.3372107686 1
-8.3125407696 -26.1253416538 9.3393538109 -0.56831275 1
-0.7124769688 -26.1253416538 9.3311809491 -1.1319979866 1
6.887586832 -26.1253416538 10.293464647 -1.830393881 1
14.4876506329 -26.1253416538 11.2145191197 -1.5292405959 1
22.0877144337 -26.1253416538 11.4527464021 -1.009449101 1
29.6877782345 -26.1253416538 0 -0 0
37.2878420353 -26.1253416538 0 -0 0
44.8879058361 -26.1253416538 0 -0 0
52.4879696369 -26.1253416538 0 -0 0
60.0880334377 -26.1253416538 0 -0 0
67.6880972385 -26.1253416538 0 -0 0
75.2881610394 -26.1253416538 10.7481626636 0.5974682863 1
82.8882248402 -26.1253416538 10.523695234 0.6325505631 1
90.488288641 -26.1253416538 10.4306730924 0.7537907842 1
98.0883524418 -26.1253416538 10.198580175 0.6450835428 1
105.6884162426 -26.1253416538 10.1614405266 0.7111459363 1
113.2884800434 -26.1253416538 9.640195659 0.6891219926 1
120.8885438442 -26.1253416538 9.648695687 -0.0119258349 1
128.488607645 -26.1253416538 10.1619375675 0.0450671356 1
136.0886714458 -26.1253416538 9.674925603 0.2559791913 1
143.6887352467 -26.1253416538 9.7947879513 -0.2874594947 1
151.2887990475 -26.1253416538 10.2121953197 0.1258645887 1
158.8888628483 -26.1253416538 9.8669406683 0.2185312517 1
166.4889266491 -26.1253416538 0 -0 0
-23.5126683712 -33.7254054546 9.8118068822 -0.245726937 1
-15.9126045704 -33.7254054546 9.7023886837 -0.4184800958 1
-8.3125407696 -33.7254054546 9.7400882896 -0.6067044381 1
-0.7124769688 -33.7254054546 9.8527781495 -0.8456584068 1
6.887586832 -33.7254054546 10.3441879818 -1.1228719388 1
14.4876506329 -33.7254054546 10.7385678874 -1.2014264163 1
22.0877144337 -33.7254054546 11.0640856123 -0.7031209284 1
29.6877782345 -33.7254054546 11.1786944275 -0.4267284575 1
37.2878420353 -33.7254054546 11.2081330883 -0.218213523 1
44.8879058361 -33.7254054546 11.1630533694 0.0845787386 1
52.4879696369 -33.7254054546 11.0219566803 0.2126359695 1
60.0880334377 -33.7254054546 10.9182513059 0.3032578442 1
67.6880972385 -33.7254054546 10.8398635573 0.3982838784 1
75.2881610394 -33.7254054546 10.7371900146 0.5080323889 1
82.8882248402 -33.7254054546 10.5174476191 0.4517000423 1
90.488288641 -33.7254054546 10.4094450433 0.5354545738 1
98.0883524418 -33.7254054546 10.3237275149 0.583113872 1
105.6884162426 -33.7254054546 10.1493227962 0.4595520296 1
113.2884800434 -33.7254054546 10.0017645758 0.4195811357 1
120.8885438442 -33.7254054546 9.9140777589 0.2068036039 1
128.488607645 -33.7254054546 10.021690252 0.1163924998 1
136.0886714458 -33.7254054546 9.9989710803 0.0916253939 1
143.6887352467 -33.7254054546 10.0054640699 0.0357082966 1
151.2887990475 -33.7254054546 10.0751001242 -0.016613119 1
158.8888628483 -33.7254054546 10.0571877781 -0.0282401003 1
166.4889266491 -33.7254054546 0 -0 0
-23.5126683712 -41.3254692554 9.9872497242 -0.3058940483 1
-15.9126045704 -41.3254692554 9.9316943972 -0.3902934746 1
-8.3125407696 -41.3254692554 9.9685635044 -0.4923756016 1
-0.7124769688 -41.3254692554 10.1700349294 -0.6638578459 1
6.887586832 -41.3254692554 10.29985697 -0.7550302405 1
14.4876506329 -41.3254692554 10.6296089798 -0.6713386255 1
22.0877144337 -41.3254692554 10.8419838456 -0.5167777915 1
29.6877782345 -41.3254692554 10.9308723689 -0.3990577522 1
37.2878420353 -41.3254692554 10.9654450214 -0.1254461935 1
44.8879058361 -41.3254692554 10.9754802136 -0.0392976866 1
52.4879696369 -41.3254692554 10.9181254728 0.0125392714 1
60.0880334377 -41.3254692554 10.8041646983 0.2623211811 1
67.6880972385 -41.3254692554 10.7660435514 0.2525533843 1
75.2881610394 -41.3254692554 10.6139112968 0.41954024 1
82.8882248402 -41.3254692554 10.5465716971 0.4344042785 1
90.488288641 -41.3254692554 10.3650259482 0.4462703427 1
98.0883524418 -41.3254692554 10.2563312902 0.5222515326 1
105.6884162426 -41.3254692554 10.176471294 0.3940495936 1
113.2884800434 -41.3254692554 10.1189529701 0.3099930625 1
120.8885438442 -41.3254692554 10.0198027551 0.2673670896 1
128.488607645 -41.3254692554 10.0397473062 0.1367774669 1
136.0886714458 -41.3254692554 10.0984170033 0.0779127285 1
143.6887352467 -41.3254692554 10.112032148 0.0864379231 1
151.2887990475 -41.3254692554 10.1530034152 0.0109411907 1
158.8888628483 -41.3254692554 10.1311084505 0.0406126428 1
166.4889266491 -41.3254692554 0 -0 0
-23.5126683712 -48.9255330563 10.0778118282 -0.2120823038 1
-15.9126045704 -48.9255330563 10.0129070995 -0.2946099623 1
-8.3125407696 -48.9255330563 10.1805986207 -0.4127452509 1
-0.7124769688 -48.9255330563 10.2311332059 -0.4669573093 1
6.887586832 -48.9255330563 10.3279366331 -0.4842971147 1
14.4876506329 -48.9255330563 10.5418781213 -0.5052231643 1
22.0877144337 -48.9255330563 10.6825721444 -0.4034587659 1
29.6877782345 -48.9255330563 10.789681305 -0.332806609 1
37.2878420353 -48.9255330563 10.8579709448 -0.1333957015 1
44.8879058361 -48.9255330563 10.7231218706 0.0449192817 1
52.4879696369 -48.9255330563 10.866521306 0.0002422288 1
60.0880334377 -48.9255330563 10.7598148115 0.1642940267 1
67.6880972385 -48.9255330563 10.6625835516 0.2555828169 1
75.2881610394 -48.9255330563 10.5214679876 0.2694276071 1
82.8882248402 -48.9255330563 10.5217259455 0.3041795719 1
90.488288641 -48.9255330563 10.374041892 0.3166999683 1
98.0883524418 -48.9255330563 10.2719660567 0.2665523201 1
105.6884162426 -48.9255330563 10.1991149658 0.3770998709 1
113.2884800434 -48.9255330563 10.1749801714 0.322806021 1
120.8885438442 -48.9255330563 10.1804224543 0.2103332232 1
128.488607645 -48.9255330563 10.0827507785 0.2539344029 1
136.0886714458 -48.9255330563 10.1159581416 0.147013992 1
143.6887352467 -48.9255330563 10.1524434578 0.1138852746 1
151.2887990475 -48.9255330563 10.1368527329 0.0636243765 1
158.8888628483 -48.9255330563 10.1111513161 -0.0202496965 1
166.4889266491 -48.9255330563 0 -0 0
-23.5126683712 -56.5255968571 10.1114973572 -0.2847383532 1
-15.9126045704 -56.5255968571 10.0735146268 -0.3179740288 1
-8.3125407696 -56.5255968571 10.21101878 -0.326543265 1
-0.7124769688 -56.5255968571 10.1836437825 -0.3429833634 1
6.887586832 -56.5255968571 10.3639752416 -0.3960000071 1
14.4876506329 -56.5255968571 10.4225065222 -0.3484067714 1
22.0877144337 -56.5255968571 10.6261359854 -0.3017258258 1
29.6877782345 -56.5255968571 10.7015037388 -0.3000585368 1
37.2878420353 -56.5255968571 10.654278565 -0.0808572237 1
44.8879058361 -56.5255968571 10.7196048346 0.0193185313 1
52.4879696369 -56.5255968571 10.6294705634 0.113017026 1
60.0880334377 -56.5255968571 10.6790739834 0.1136336084 1
67.6880972385 -56.5255968571 10.6771172782 0.2310485023 1
75.2881610394 -56.5255968571 10.4810755527 0.1425437701 1
82.8882248402 -56.5255968571 10.42075115 0.2588167284 1
90.488288641 -56.5255968571 10.3513730536 0.2693112114 1
98.0883524418 -56.5255968571 10.2772321732 0.2697705024 1
105.6884162426 -56.5255968571 10.3041038382 0.2821461907 1
113.2884800434 -56.5255968571 10.2310325394 0.4039904109 1
120.8885438442 -56.5255968571 10.1910553538 0.2555482128 1
128.488607645 -56.5255968571 10.1115351071 0.1267485664 1
136.0886714458 -56.5255968571 10.1388975213 0.1728538254 1
143.6887352467 -56.5255968571 10.158118532 0.0684846812 1
151.2887990475 -56.5255968571 10.1831530333 0.0533375181 1
158.8888628483 -56.5255968571 10.081404364 0.0964605319 1
166.4889266491 -56.5255968571 0 -0 0
-23.5126683712 -64.1256606579 10.1520974167 -0.2301362121 1
-15.9126045704 -64.1256606579 10.1145173523 -0.2533964663 1
-8.3125407696 -64.1256606579 10.1900927304 -0.2885102013 1
-0.7124769688 -64.1256606579 10.2646929017 -0.2523111555 1
6.887586832 -64.1256606579 10.3654349059 -0.309691063 1
14.4876506329 -64.1256606579 10.4151956173 -0.2398914256 1
22.0877144337 -64.1256606579 10.6826853942 -0.2879376606 1
29.6877782345 -64.1256606579 10.578225021 -0.1836188497 1
37.2878420353 -64.1256606579 10.6057950599 -0.0885236072 1
44.8879058361 -64.1256606579 10.5774448556 0.0423711608 1
52.4879696369 -64.1256606579 10.5960681589 0.0397727067 1
60.0880334377 -64.1256606579 10.6731535346 0.1439908511 1
67.6880972385 -64.1256606579 10.5979808225 0.1090375533 1
75.2881610394 -64.1256606579 10.5409847061 0.1427702697 1
82.8882248402 -64.1256606579 10.4127481629 0.2129662815 1
90.488288641 -64.1256606579 10.3970756465 0.3150075127 1
98.0883524418 -64.1256606579 10.3018451335 0.2444874807 1
105.6884162426 -64.1256606579 10.2557713328 0.1860379916 1
113.2884800434 -64.1256606579 10.2999890948 0.23764845 1
120.8885438442 -64.1256606579 10.1088359865 0.1521039422 1
128.488607645 -64.1256606579 10.233146536 0.1316938084 1
136.0886714458 -64.1256606579 10.1230110886 0.0975647176 1
143.6887352467 -64.1256606579 10.2414641059 0.1543311886 1
151.2887990475 -64.1256606579 10.1754960873 0.0463411961 1
158.8888628483 -64.1256606579 10.0339463989 0.0449884899 1
166.4889266491 -64.1256606579 0 -0 0
-23.5126683712 -71.7257244587 10.1277172477 -0.1837824327 1
-15.9126045704 -71.7257244587 10.2797047942 -0.2709753546 1
-8.3125407696 -71.7257244587 10.2671592311 -0.2294944632 1
-0.7124769688 -71.7257244587 10.3104521196 -0.1633156741 1
6.887586832 -71.7257244587 10.3198518544 -0.2803247562 1
14.4876506329 -71.7257244587 10.4522723492 -0.2724570397 1
22.0877144337 -71.7257244587 10.483617382 -0.138661818 1
29.6877782345 -71.7257244587 10.5324217616 -0.0686325351 1
37.2878420353 -71.7257244587 10.5760984411 -0.0935883907 1
44.8879058361 -71.7257244587 10.6048513114 -0.0399331439 1
52.4879696369 -71.7257244587 10.5574122213 0.0179312211 1
60.0880334377 -71.7257244587 10.5682527454 0.1495998629 1
67.6880972385 -71.7257244587 10.5333906767 0.0280607881 1
75.2881610394 -71.7257244587 10.465006662 0.1648130883 1
82.8882248402 -71.7257244587 10.4294965526 0.1080277424 1
90.488288641 -71.7257244587 10.3468808108 0.1786736076 1
98.0883524418 -71.7257244587 10.3323722509 0.2143724667 1
105.6884162426 -71.7257244587 10.3405388211 0.1863116787 1
113.2884800434 -71.7257244587 10.2622957806 0.0938494945 1
120.8885438442 -71.7257244587 10.3044624626 0.1338612841 1
128.488607645 -71.7257244587 10.2785345461 0.1328766398 1
136.0886714458 -71.7257244587 10.2113270711 0.1326218278 1
143.6887352467 -71.7257244587 10.2375695705 0.1239424876 1
151.2887990475 -71.7257244587 10.1878906506 -0.0928648502 1
158.8888628483 -71.7257244587 10.140130686 -0.0284194125 1
166.4889266491 -71.7257244587 0 -0 0
-23.5126683712 -79.3257882595 10.1619124009 -0.0861296319 1
-15.9126045704 -79.3257882595 10.2539656274 -0.1395269208 1
-8.3125407696 -79.3257882595 10.2707454753 -0.2044631077 1
-0.7124769688 -79.3257882595 10.3492150154 -0.1551994372 1
6.887586832 -79.3257882595 10.3939109433 -0.2333543944 1
14.4876506329 -79.3257882595 10.4822269259 -0.1804038132 1
22.0877144337 -79.3257882595 10.4945648643 -0.1562344147 1
29.6877782345 -79.3257882595 10.5409280812 -0.1351133237 1
37.2878420353 -79.3257882595 10.5126093352 -0.0927736212 1
44.8879058361 -79.3257882595 10.5159753714 -0.0422673485 1
52.4879696369 -79.3257882595 10.5128861681 -0.0210518827 1
60.0880334377 -79.3257882595 10.5653334168 0.0637502097 1
67.6880972385 -79.3257882595 10.4355365428 0.0733166734 1
75.2881610394 -79.3257882595 10.4798927213 0.1388757343 1
82.8882248402 -79.3257882595 10.4512593925 0.1457588066 1
90.488288641 -79.3257882595 10.3619304532 0.1385863181 1
98.0883524418 -79.3257882595 10.2884879467 0.1249648818 1
105.6884162426 -79.3257882595 10.2679834381 0.1391494214 1
113.2884800434 -79.3257882595 10.2598483262 0.1389166301 1
120.8885438442 -79.3257882595 10.3874745787 0.1230176141 1
128.488607645 -79.3257882595 10.2257286729 0.1594431595 1
136.0886714458 -79.3257882595 10.1361040258 0.1270096701 1
143.6887352467 -79.3257882595 10.2038966248 0.0852802583 1
151.2887990475 -79.3257882595 10.2072500777 0.0405402888 1
158.8888628483 -79.3257882595 10.2327816199 -0.0210550285 1
166.4889266491 -79.3257882595 0 -0 0
-23.5126683712 -86.9258520603 10.2232812185 0.0016578515 1
-15.9126045704 -86.9258520603 10.2423889794 -0.075613128 1
-8.3125407696 -86.9258520603 10.2772825064 -0.0948593053 1
-0.7124769688 -86.9258520603 10.3293711307 -0.1635767778 1
6.887586832 -86.9258520603 10.3624967023 -0.1189563498 1
14.4876506329 -86.9258520603 10.4061230486 -0.171321807 1
22.0877144337 -86.9258520603 10.4068214225 -0.1241878622 1
29.6877782345 -86.9258520603 10.4735444399 -0.1619000514 1
37.2878420353 -86.9258520603 10.4886884571 -0.0669967044 1
44.8879058361 -86.9258520603 10.4906199957 -0.0698782831 1
52.4879696369 -86.9258520603 10.4553930108 0.031835782 1
60.0880334377 -86.9258520603 10.5276589776 0.0249873139 1
67.6880972385 -86.9258520603 10.4191467776 0.10433454 1
75.2881610394 -86.9258520603 10.4166993232 0.1012296076 1
82.8882248402 -86.9258520603 10.3793709251 0.0834430946 1
90.488288641 -86.9258520603 10.3175176499 0.1247257988 1
98.0883524418 -86.9258520603 10.3162844852 0.0766292306 1
105.6884162426 -86.9258520603 10.3038081303 0.1300453944 1
113.2884800434 -86.9258520603 10.2544878349 0.1032806876 1
120.8885438442 -86.9258520603 10.2505807162 0.0739521307 1
128.488607645 -86.9258520603 10.2563249986 0.061913046 1
136.0886714458 -86.9258520603 10.2136046508 0.0791836431 1
143.6887352467 -86.9258520603 10.2543494184 0.0011324982 1
151.2887990475 -86.9258520603 10.1956734297 -0.0411474336 1
158.8888628483 -86.9258520603 10.2073318693 -0.0669715378 1
166.4889266491 -86.9258520603 0 -0 0
-23.5126683712 -94.5259158611 10.2298182497 -0.0485810258 1
-15.9126045704 -94.5259158611 10.2776096726 -0.082483617 1
-8.3125407696 -94.5259158611 10.4216571486 -0.0808414946 1
-0.7124769688 -94.5259158611 10.2961134344 -0.0782996654 1
6.887586832 -94.5259158611 10.339311948 -0.0661945182 1
14.4876506329 -94.5259158611 10.386241414 -0.1268083371 1
22.0877144337 -94.5259158611 10.441010284 -0.0243927523 1
29.6877782345 -94.5259158611 10.4867632102 -0.0293694526 1
37.2878420353 -94.5259158611 10.4428726143 -0.1010911911 1
44.8879058361 -94.5259158611 10.4468992745 -0.0286616413 1
52.4879696369 -94.5259158611 10.4670514503 0.0086132778 1
60.0880334377 -94.5259158611 10.4821199677 -0.0254120007 1
67.6880972385 -94.5259158611 10.4371472069 0.0299136809 1
75.2881610394 -94.5259158611 10.3705688976 0.0663486638 1
82.8882248402 -94.5259158611 10.4030778869 0.0941389107 1
90.488288641 -94.5259158611 10.3994350177 0.0727472785 1
98.0883524418 -94.5259158611 10.4417841578 0.0230935253 1
105.6884162426 -94.5259158611 10.2995423872 0.1443683505 1
113.2884800434 -94.5259158611 10.3515995532 0.1642027976 1
120.8885438442 -94.5259158611 10.2714438492 0.0367306908 1
128.488607645 -94.5259158611 10.2103204061 0.0665594343 1
136.0886714458 -94.5259158611 10.2445470176 0.1229515517 1
143.6887352467 -94.5259158611 10.2400170249 -0.0140366857 1
151.2887990475 -94.5259158611 10.2665803987 -0.0857552783 1
158.8888628483 -94.5259158611 10.2015750035 -0.0324618018 1
166.4889266491 -94.5259158611 0 -0 0
-23.5126683712 -102.1259796619 10.2847003695 -0.0388037916 1
-15.9126045704 -102.1259796619 10.2828757891 -0.1164554163 1
-8.3125407696 -102.1259796619 10.3180901906 -0.0236880868 1
-0.7124769688 -102.1259796619 10.3186753147 -0.0770224591 1
6.887586832 -102.1259796619 10.3700278152 -0.0812693272 1
14.4876506329 -102.1259796619 10.3704556478 -0.0582733227 1
22.0877144337 -102.1259796619 10.3652776145 -0.0736973186 1
29.6877782345 -102.1259796619 10.4090046273 -0.0309172001 1
37.2878420353 -102.1259796619 10.4712354019 -0.0613499427 1
44.8879058361 -102.1259796619 10.3923065709 -0.0406378095 1
52.4879696369 -102.1259796619 10.4675233246 -0.0361707333 1
60.0880334377 -102.1259796619 10.4782002657 -0.0001509998 1
67.6880972385 -102.1259796619 10.3927973201 0.0887626902 1
75.2881610394 -102.1259796619 10.4008506405 -0.0045771801 1
82.8882248402 -102.1259796619 10.3979753534 0.0542718291 1
90.488288641 -102.1259796619 10.3540721742 -0.0016421224 1
98.0883524418 -102.1259796619 10.367630694 0.0219358605 1
105.6884162426 -102.1259796619 10.3660955298 0.089882605 1
113.2884800434 -102.1259796619 10.2927473982 0.077299292 1
120.8885438442 -102.1259796619 10.2706888504 0.0782052905 1
128.488607645 -102.1259796619 10.3163851517 0.0157857662 1
136.0886714458 -102.1259796619 10.1964158452 -0.0273215184 1
143.6887352467 -102.1259796619 10.2567842895 -0.0167924312 1
151.2887990475 -102.1259796619 10.2101064898 -0.0633915853 1
158.8888628483 -102.1259796619 10.1888469824 0.054274975 1
166.4889266491 -102.1259796619 0 -0 0
-23.5126683712 -109.7260434628 0 -0 0
-15.9126045704 -109.7260434628 0 -0 0
-8.3125407696 -109.7260434628 0 -0 0
-0.7124769688 -109.7260434628 0 -0 0
6.887586832 -109.7260434628 0 -0 0
14.4876506329 -109.7260434628 0 -0 0
22.0877144337 -109.7260434628 0 -0 0
29.6877782345 -109.7260434628 0 -0 0
37.2878420353 -109.7260434628 0 -0 0
44.8879058361 -109.7260434628 0 -0 0
52.4879696369 -109.7260434628 0 -0 0
60.0880334377 -109.7260434628 0 -0 0
67.6880972385 -109.7260434628 0 -0 0
75.2881610394 -109.7260434628 0 -0 0
82.8882248402 -109.7260434628 0 -0 0
90.488288641 -109.7260434628 0 -0 0
98.0883524418 -109.7260434628 0 -0 0
105.6884162426 -109.7260434628 0 -0 0
113.2884800434 -109.7260434628 0 -0 0
120.8885438442 -109.7260434628 0 -0 0
128.488607645 -109.7260434628 0 -0 0
136.0886714458 -109.7260434628 0 -0 0
143.6887352467 -109.7260434628 0 -0 0
151.2887990475 -109.7260434628 0 -0 0
158.8888628483 -109.7260434628 0 -0 0
166.4889266491 -109.7260434628 0 -0 0
