TITLE = "B00001"
VARIABLES = "x", "y", "Vx", "Vy", "isValid"
ZONE T="Frame 0", I=26, J=20, F=POINT
-23.5126683712 34.6751687527 10.0680408856 0.3207958367 1
-15.9126045704 34.6751687527 10.1083326539 0.3434206336 1
-8.3125407696 34.6751687527 0 -0 0
-0.7124769688 34.6751687527 0 -0 0
6.887586832 34.6751687527 0 -0 0
14.4876506329 34.6751687527 0 -0 0
22.0877144337 34.6751687527 10.4796473467 0.2705852719 1
29.6877782345 34.6751687527 10.5619673806 0.3311456117 1
37.2878420353 34.6751687527 10.5284328513 0.1658040242 1
44.8879058361 34.6751687527 10.5330320523 0.1689529983 1
52.4879696369 34.6751687527 10.556537681 0.1015441904 1
60.0880334377 34.6751687527 10.5649873757 -0.0430852638 1
67.6880972385 34.6751687527 10.4441875706 -0.0297941394 1
75.2881610394 34.6751687527 10.4231482712 -0.0778686869 1
82.8882248402 34.6751687527 10.3735071012 -0.1000184637 1
90.488288641 34.6751687527 0 -0 0
98.0883524418 34.6751687527 0 -0 0
105.6884162426 34.6751687527 10.2235769264 -0.1164176664 1
113.2884800434 34.6751687527 10.2068537034 -0.1294948745 1
120.8885438442 34.6751687527 10.1907344794 -0.11466544 1
128.488607645 34.6751687527 10.1299759524 -0.1253801311 1
136.0886714458 34.6751687527 10.106224949 -0.0745278173 1
143.6887352467 34.6751687527 10.1102579008 -0.0930661832 1
151.2887990475 34.6751687527 10.1604904865 -0.0587923843 1
158.8888628483 34.6751687527 10.04671217 -0.034748819 1
166.4889266491 34.6751687527 0 -0 0
-23.5126683712 27.0751049519 10.0554764475 0.3745957916 1
-15.9126045704 27.0751049519 10.092817429 0.402889371 1
-8.3125407696 27.0751049519 10.2024935854 0.4899501681 1
-0.7124769688 27.0751049519 0 -0 0
6.887586832 27.0751049519 0 -0 0
14.4876506329 27.0751049519 0 -0 0
22.0877144337 27.0751049519 10.6143202545 0.3668696374 1
29.6877782345 27.0751049519 10.5818175569 0.257687376 1
37.2878420353 27.0751049519 10.639021298 0.1692864561 1
44.8879058361 27.0751049519 10.6567134361 0.0910025199 1
52.4879696369 27.0751049519 10.6301311873 0.0276581221 1
60.0880334377 27.0751049519 10.6219834921 -0.0041745141 1
67.6880972385 27.0751049519 10.4836110903 -0.0839747396 1
75.2881610394 27.0751049519 10.5058332211 -0.1299636029 1
82.8882248402 27.0751049519 10.4114206234 -0.2021509239 1
90.488288641 27.0751049519 0 -0 0
98.0883524418 27.0751049519 0 -0 0
105.6884162426 27.0751049519 10.2469000971 -0.1952521226 1
113.2884800434 27.0751049519 10.1582003235 -0.269264024 1
120.8885438442 27.0751049519 10.1251754184 -0.1821560395 1
128.488607645 27.0751049519 10.101883706 -0.1212999918 1
136.0886714458 27.0751049519 10.1286358295 -0.1611293234 1
143.6887352467 27.0751049519 10.1161091414 -0.120290181 1
151.2887990475 27.0751049519 10.1294411616 -0.1492223635 1
158.8888628483 27.0751049519 9.9729424973 -0.1002921507 1
166.4889266491 27.0751049519 0 -0 0
-23.5126683712 19.475041151 10.0742004173 0.4266026244 1
-15.9126045704 19.475041151 10.0466240868 0.4689989519 1
-8.3125407696 19.475041151 10.1744831306 0.4980821341 1
-0.7124769688 19.475041151 0 -0 0
6.887586832 19.475041151 0 -0 0
14.4876506329 19.475041151 10.4747209796 0.5386475895 1
22.0877144337 19.475041151 10.7308920664 0.3578662769 1
29.6877782345 19.475041151 10.8747570844 0.3196790677 1
37.2878420353 19.475041151 10.7307284834 0.1924806479 1
44.8879058361 19.475041151 10.8211332959 0.0659900394 1
52.4879696369 19.475041151 10.7075877707 -0.1083612002 1
60.0880334377 19.475041151 10.6403173792 -0.1435881851 1
67.6880972385 19.475041151 10.6080726395 -0.2729666639 1
75.2881610394 19.475041151 10.5089601744 -0.2439621273 1
82.8882248402 19.475041151 10.4099609591 -0.3354333756 1
90.488288641 19.475041151 10.3269928846 -0.3237371862 1
98.0883524418 19.475041151 0 -0 0
105.6884162426 19.475041151 10.1948743894 -0.3049565914 1
113.2884800434 19.475041151 10.0959821322 -0.2998666413 1
120.8885438442 19.475041151 10.0870039383 -0.2579736464 1
128.488607645 19.475041151 10.1334552384 -0.1946229569 1
136.0886714458 19.475041151 10.0821027379 -0.1417793338 1
143.6887352467 19.475041151 10.1106920251 -0.1261319841 1
151.2887990475 19.475041151 10.1021668306 -0.1682860827 1
158.8888628483 19.475041151 10.0327887341 0.0158864327 1
166.4889266491 19.475041151 0 -0 0
-23.5126683712 11.8749773502 10.0231184581 0.4587875933 1
-15.9126045704 11.8749773502 9.901198738 0.5410667314 1
-8.3125407696 11.8749773502 10.0196328803 0.5644622562 1
-0.7124769688 11.8749773502 0 -0 0
6.887586832 11.8749773502 0 -0 0
14.4876506329 11.8749773502 10.6761231964 0.7227414592 1
22.0877144337 11.8749773502 10.9096820697 0.4955088466 1
29.6877782345 11.8749773502 10.9447769298 0.3386200997 1
37.2878420353 11.8749773502 10.9269778335 0.0714417598 1
44.8879058361 11.8749773502 10.9376799412 -0.0250376471 1
52.4879696369 11.8749773502 10.8091728568 -0.1436668308 1
60.0880334377 11.8749773502 10.7786771977 -0.2739292873 1
67.6880972385 11.8749773502 10.6585317248 -0.2366763891 1
75.2881610394 11.8749773502 10.541462872 -0.3850588164 1
82.8882248402 11.8749773502 10.3963080644 -0.3630285811 1
90.488288641 11.8749773502 10.4461820257 -0.3901015791 1
98.0883524418 11.8749773502 0 -0 0
105.6884162426 11.8749773502 10.188287025 -0.4240702327 1
113.2884800434 11.8749773502 10.0169778013 -0.3088888768 1
120.8885438442 11.8749773502 10.0292402398 -0.3123429962 1
128.488607645 11.8749773502 10.0766541634 -0.2191006466 1
136.0886714458 11.8749773502 10.0157949699 -0.2145989664 1
143.6887352467 11.8749773502 9.9324682709 -0.089187377 1
151.2887990475 11.8749773502 10.0242132063 0.0181923248 1
158.8888628483 11.8749773502 10.0148134715 -0.0552847858 1
166.4889266491 11.8749773502 0 -0 0
-23.5126683712 4.2749135494 9.8723577846 0.4542859131 1
-15.9126045704 4.2749135494 9.76048584 0.5734435959 1
-8.3125407696 4.2749135494 9.9426796295 0.7304644676 1
-0.7124769688 4.2749135494 0 -0 0
6.887586832 4.2749135494 0 -0 0
14.4876506329 4.2749135494 10.7294638604 0.9123562576 1
22.0877144337 4.2749135494 11.0456699337 0.6746983701 1
29.6877782345 4.2749135494 11.214733036 0.3611599591 1
37.2878420353 4.2749135494 11.1493501415 0.0952179298 1
44.8879058361 4.2749135494 10.9619468604 -0.0551243486 1
52.4879696369 4.2749135494 10.9445693051 -0.2850372069 1
60.0880334377 4.2749135494 10.8685472194 -0.3980919829 1
67.6880972385 4.2749135494 10.7295582353 -0.5171395617 1
75.2881610394 4.2749135494 10.601818733 -0.437216649 1
82.8882248402 4.2749135494 10.5978486977 -0.535561532 1
90.488288641 4.2749135494 10.4424699483 -0.521109597 1
98.0883524418 4.2749135494 0 -0 0
105.6884162426 4.2749135494 10.1348331112 -0.6119359505 1
113.2884800434 4.2749135494 10.0327824425 -0.3942414891 1
120.8885438442 4.2749135494 9.939464593 -0.2807934846 1
128.488607645 4.2749135494 10.0454035054 -0.2268834257 1
136.0886714458 4.2749135494 9.9266170304 -0.1251536315 1
143.6887352467 4.2749135494 10.0933333448 -0.0943213687 1
151.2887990475 4.2749135494 10.0400241391 -0.0806779115 1
158.8888628483 4.2749135494 9.9391751768 -0.0532242683 1
166.4889266491 4.2749135494 0 -0 0
-23.5126683712 -3.3251502514 9.6939452807 0.393914323 1
-15.9126045704 -3.3251502514 9.6074350035 0.5534550031 1
-8.3125407696 -3.3251502514 9.6715721501 0.8605161537 1
-0.7124769688 -3.3251502514 0 -0 0
6.887586832 -3.3251502514 0 -0 0
14.4876506329 -3.3251502514 0 -0 0
22.0877144337 -3.3251502514 0 -0 0
29.6877782345 -3.3251502514 0 -0 0
37.2878420353 -3.3251502514 0 -0 0
44.8879058361 -3.3251502514 0 -0 0
52.4879696369 -3.3251502514 0 -0 0
60.0880334377 -3.3251502514 0 -0 0
67.6880972385 -3.3251502514 10.7708818353 -0.5513347149 1
75.2881610394 -3.3251502514 10.7126777208 -0.55640579 1
82.8882248402 -3.3251502514 10.5972887403 -0.670907647 1
90.488288641 -3.3251502514 10.4593127128 -0.680505569 1
98.0883524418 -3.3251502514 0 -0 0
105.6884162426 -3.3251502514 10.1020598724 -0.7590852131 1
113.2884800434 -3.3251502514 9.7544269748 -0.5846647653 1
120.8885438442 -3.3251502514 9.8858408045 -0.2048720654 1
128.488607645 -3.3251502514 10.0573954028 -0.2636801789 1
136.0886714458 -3.3251502514 9.777649479 -0.235616245 1
143.6887352467 -3.3251502514 9.982033941 0.1249365693 1
151.2887990475 -3.3251502514 10.2215761796 -0.3175808003 1
158.8888628483 -3.3251502514 9.6800595947 -0.0732852151 1
166.4889266491 -3.3251502514 0 -0 0
-23.5126683712 -10.9252140522 9.6581142968 0.225137491 1
-15.9126045704 -10.9252140522 9.4180750173 0.3742340214 1
-8.3125407696 -10.9252140522 0 -0 0
-0.7124769688 -10.9252140522 0 -0 0
6.887586832 -10.9252140522 0 -0 0
14.4876506329 -10.9252140522 0 -0 0
22.0877144337 -10.9252140522 0 -0 0
29.6877782345 -10.9252140522 0 -0 0
37.2878420353 -10.9252140522 0 -0 0
44.8879058361 -10.9252140522 0 -0 0
52.4879696369 -10.9252140522 0 -0 0
60.0880334377 -10.9252140522 0 -0 0
67.6880972385 -10.9252140522 0 -0 0
75.2881610394 -10.9252140522 0 -0 0
82.8882248402 -10.9252140522 0 -0 0
90.488288641 -10.9252140522 0 -0 0
98.0883524418 -10.9252140522 0 -0 0
105.6884162426 -10.9252140522 0 -0 0
113.2884800434 -10.9252140522 0 -0 0
120.8885438442 -10.9252140522 9.0109733823 0.209751245 1
128.488607645 -10.9252140522 10.1843799063 -0.9367993431 1
136.0886714458 -10.9252140522 8.9691401581 -0.6109984936 1
143.6887352467 -10.9252140522 9.247766167 1.7631612394 1
151.2887990475 -10.9252140522 9.9911820096 -1.2116000249 1
158.8888628483 -10.9252140522 8.7156933586 -0.2818693579 1
166.4889266491 -10.9252140522 0 -0 0
-23.5126683712 -18.525277853 9.6559940085 0.0690100345 1
-15.9126045704 -18.525277853 9.3783557897 -0.0380425011 1
-8.3125407696 -18.525277853 9.0541089794 -0.1938899789 1
-0.7124769688 -18.525277853 0 -0 0
6.887586832 -18.525277853 0 -0 0
14.4876506329 -18.525277853 0 -0 0
22.0877144337 -18.525277853 0 -0 0
29.6877782345 -18.525277853 0 -0 0
37.2878420353 -18.525277853 0 -0 0
44.8879058361 -18.525277853 0 -0 0
52.4879696369 -18.525277853 0 -0 0
60.0880334377 -18.525277853 0 -0 0
67.6880972385 -18.525277853 0 -0 0
75.2881610394 -18.525277853 0 -0 0
82.8882248402 -18.525277853 0 -0 0
90.488288641 -18.525277853 0 -0 0
98.0883524418 -18.525277853 0 -0 0
105.6884162426 -18.525277853 0 -0 0
113.2884800434 -18.525277853 9.1346736411 -0.4825920758 1
120.8885438442 -18.525277853 10.3525684683 0.9374442379 1
128.488607645 -18.525277853 8.5789190375 -0.3496053319 1
136.0886714458 -18.525277853 8.8953390271 -2.0473301977 1
143.6887352467 -18.525277853 9.4632365278 1.4552632985 1
151.2887990475 -18.525277853 8.9110744601 -0.994519 1
158.8888628483 -18.525277853 9.6029364691 -1.2445211176 1
166.4889266491 -18.525277853 0 -0 0
-23.5126683712 -26.1253416538 9.6825322157 -0.0370547111 1
-15.9126045704 -26.1253416538 9.5125945732 -0.2913131343 1
-8.3125407696 -26.1253416538 9.3334144872 -0.5577176004 1
-0.7124769688 -26.1253416538 9.4289155415 -1.1571268628 1
6.887586832 -26.1253416538 10.2394759424 -1.813192492 1
14.4876506329 -26.1253416538 11.121515853 -1.5442996758 1
22.0877144337 -26.1253416538 11.34452991 -0.9702552267 1
29.6877782345 -26.1253416538 0 -0 0
37.2878420353 -26.1253416538 0 -0 0
44.8879058361 -26.1253416538 0 -0 0
52.4879696369 -26.1253416538 0 -0 0
60.0880334377 -26.1253416538 0 -0 0
67.6880972385 -26.1253416538 0 -0 0
75.2881610394 -26.1253416538 10.778048032 0.6147609042 1
82.8882248402 -26.1253416538 10.5354669233 0.642699005 1
90.488288641 -26.1253416538 10.339752364 0.6670351324 1
98.0883524418 -26.1253416538 10.012001101 0.8140648536 1
105.6884162426 -26.1253416538 9.7676331618 0.7004060786 1
113.2884800434 -26.1253416538 9.7388802915 0.1678519584 1
120.8885438442 -26.1253416538 10.0280888667 0.4905510213 1
128.488607645 -26.1253416538 9.4937825202 0.1149108147 1
136.0886714458 -26.1253416538 9.9996820375 -0.1928361265 1
143.6887352467 -26.1253416538 9.9450641673 0.2222275999 1
151.2887990475 -26.1253416538 9.6957321111 -0.0395493529 1
158.8888628483 -26.1253416538 10.1952141388 -0.3118302262 1
166.4889266491 -26.1253416538 0 -0 0
-23.5126683712 -33.7254054546 9.7730188198 -0.2407250701 1
-15.9126045704 -33.7254054546 9.7153683711 -0.3421214065 1
-8.3125407696 -33.7254054546 9.6622479151 -0.5657960874 1
-0.7124769688 -33.7254054546 10.049404999 -0.9233163232 1
6.887586832 -33.7254054546 10.3080424152 -1.0633402849 1
14.4876506329 -33.7254054546 10.774751204 -1.0596502283 1
22.0877144337 -33.7254054546 10.9544472059 -0.7788535979 1
29.6877782345 -33.7254054546 11.1456506475 -0.4041508481 1
37.2878420353 -33.7254054546 11.1588065012 -0.1693147686 1
44.8879058361 -33.7254054546 11.1645004504 0.0567570335 1
52.4879696369 -33.7254054546 10.9849806149 0.2052243981 1
60.0880334377 -33.7254054546 10.9303879113 0.326121724 1
67.6880972385 -33.7254054546 10.8583799025 0.4193420528 1
75.2881610394 -33.7254054546 10.6268784009 0.3758195188 1
82.8882248402 -33.7254054546 10.4940678234 0.5925261901 1
90.488288641 -33.7254054546 10.4100930839 0.519662516 1
98.0883524418 -33.7254054546 10.1874879846 0.6098062247 1
105.6884162426 -33.7254054546 10.0767862882 0.522647907 1
113.2884800434 -33.7254054546 9.9380552619 0.3944774262 1
120.8885438442 -33.7254054546 9.9491411607 0.2180153358 1
128.488607645 -33.7254054546 9.8613536773 0.0877560251 1
136.0886714458 -33.7254054546 10.0128190163 0.0336351957 1
143.6887352467 -33.7254054546 10.0243138728 -0.0133194368 1
151.2887990475 -33.7254054546 9.9579746465 -0.0993263815 1
158.8888628483 -33.7254054546 10.0980395039 -0.0412638293 1
166.4889266491 -33.7254054546 0 -0 0
-23.5126683712 -41.3254692554 9.9259249482 -0.2904983648 1
-15.9126045704 -41.3254692554 9.8555653533 -0.2857387266 1
-8.3125407696 -41.3254692554 9.9474298301 -0.4788013527 1
-0.7124769688 -41.3254692554 10.1318823243 -0.5551726254 1
6.887586832 -41.3254692554 10.3028643818 -0.6970148757 1
14.4876506329 -41.3254692554 10.4889086651 -0.5903712978 1
22.0877144337 -41.3254692554 10.8050958634 -0.6282376325 1
29.6877782345 -41.3254692554 10.9257383772 -0.3709843808 1
37.2878420353 -41.3254692554 10.9567877021 -0.2159579642 1
44.8879058361 -41.3254692554 10.8505342068 -0.0285829956 1
52.4879696369 -41.3254692554 10.9023837482 0.155183708 1
60.0880334377 -41.3254692554 10.8370197286 0.1736654491 1
67.6880972385 -41.3254692554 10.692305337 0.3805099488 1
75.2881610394 -41.3254692554 10.5335920097 0.3686659054 1
82.8882248402 -41.3254692554 10.4662712849 0.4210282167 1
90.488288641 -41.3254692554 10.3076460408 0.3468244198 1
98.0883524418 -41.3254692554 10.3034683809 0.4755926079 1
105.6884162426 -41.3254692554 10.1441636378 0.3666903252 1
113.2884800434 -41.3254692554 10.107049156 0.3244953308 1
120.8885438442 -41.3254692554 9.9805428184 0.2679962552 1
128.488607645 -41.3254692554 10.0839399016 0.1792838983 1
136.0886714458 -41.3254692554 9.9732885384 0.1453120989 1
143.6887352467 -41.3254692554 10.0444157154 0.063542585 1
151.2887990475 -41.3254692554 10.069846591 -0.0032653697 1
158.8888628483 -41.3254692554 10.0982597119 0.0936481614 1
166.4889266491 -41.3254692554 0 -0 0
-23.5126683712 -48.9255330563 9.9579117299 -0.2778584268 1
-15.9126045704 -48.9255330563 10.0394138484 -0.2755242223 1
-8.3125407696 -48.9255330563 10.1038970361 -0.4019298934 1
-0.7124769688 -48.9255330563 10.2196698077 -0.4498974827 1
6.887586832 -48.9255330563 10.3256779284 -0.4963173245 1
14.4876506329 -48.9255330563 10.5406323733 -0.4584918855 1
22.0877144337 -48.9255330563 10.6617593446 -0.383948339 1
29.6877782345 -48.9255330563 10.7016358636 -0.107798097 1
37.2878420353 -48.9255330563 10.8079019422 -0.1350881571 1
44.8879058361 -48.9255330563 10.8183083421 -0.0415941412 1
52.4879696369 -48.9255330563 10.7928208416 0.1076062014 1
60.0880334377 -48.9255330563 10.7114319728 0.1976114938 1
67.6880972385 -48.9255330563 10.6067199334 0.3791949925 1
75.2881610394 -48.9255330563 10.5748149432 0.2136174679 1
82.8882248402 -48.9255330563 10.4291568031 0.2910897805 1
90.488288641 -48.9255330563 10.3850774576 0.4400478944 1
98.0883524418 -48.9255330563 10.2466169726 0.406881427 1
105.6884162426 -48.9255330563 10.0819014049 0.2758891383 1
113.2884800434 -48.9255330563 10.1266099161 0.2793998827 1
120.8885438442 -48.9255330563 10.0486688752 0.258933124 1
128.488607645 -48.9255330563 10.0554827392 0.1826562262 1
136.0886714458 -48.9255330563 10.0829017783 0.1683112494 1
143.6887352467 -48.9255330563 10.0984987948 0.0324114686 1
151.2887990475 -48.9255330563 10.0714069218 0.0628410653 1
158.8888628483 -48.9255330563 10.1312028254 0.0739710057 1
166.4889266491 -48.9255330563 0 -0 0
-23.5126683712 -56.5255968571 10.0245277891 -0.2676470683 1
-15.9126045704 -56.5255968571 10.0850409415 -0.2491495981 1
-8.3125407696 -56.5255968571 10.162258442 -0.3695781955 1
-0.7124769688 -56.5255968571 10.2468686388 -0.3814631347 1
6.887586832 -56.5255968571 10.3220916842 -0.3758824354 1
14.4876506329 -56.5255968571 10.4753249787 -0.2984510186 1
22.0877144337 -56.5255968571 10.6254942364 -0.2184809184 1
29.6877782345 -56.5255968571 10.6466656606 -0.1743575313 1
37.2878420353 -56.5255968571 10.6692904575 -0.1127779431 1
44.8879058361 -56.5255968571 10.6292818137 0.0915782065 1
52.4879696369 -56.5255968571 10.6781616932 0.0037340981 1
60.0880334377 -56.5255968571 10.7205485831 0.1622775508 1
67.6880972385 -56.5255968571 10.5838686369 0.0942678896 1
75.2881610394 -56.5255968571 10.6182462481 0.2355533284 1
82.8882248402 -56.5255968571 10.4230916462 0.337899705 1
90.488288641 -56.5255968571 10.3817869212 0.2959878351 1
98.0883524418 -56.5255968571 10.2629752795 0.2836750633 1
105.6884162426 -56.5255968571 10.2478878872 0.3504012265 1
113.2884800434 -56.5255968571 10.1277172477 0.2280190697 1
120.8885438442 -56.5255968571 10.1166816821 0.1957428718 1
128.488607645 -56.5255968571 10.186619736 0.1774372971 1
136.0886714458 -56.5255968571 10.1229922136 0.1599024504 1
143.6887352467 -56.5255968571 10.1568853673 0.0834179279 1
151.2887990475 -56.5255968571 10.0981779203 0.0206555084 1
158.8888628483 -56.5255968571 10.0602455232 0.2063600421 1
166.4889266491 -56.5255968571 0 -0 0
-23.5126683712 -64.1256606579 10.070708548 -0.2163386094 1
-15.9126045704 -64.1256606579 10.1267420409 -0.2169237334 1
-8.3125407696 -64.1256606579 10.2305543735 -0.2640104908 1
-0.7124769688 -64.1256606579 10.2890730707 -0.2755714097 1
6.887586832 -64.1256606579 10.3969372301 -0.2508577829 1
14.4876506329 -64.1256606579 10.4374869564 -0.2836845008 1
22.0877144337 -64.1256606579 10.5080856342 -0.2185690016 1
29.6877782345 -64.1256606579 10.564213502 -0.2027234647 1
37.2878420353 -64.1256606579 10.558588761 -0.0591604462 1
44.8879058361 -64.1256606579 10.5683471203 -0.0696549293 1
52.4879696369 -64.1256606579 10.5159061632 0.0252830217 1
60.0880334377 -64.1256606579 10.5249472736 0.0625390658 1
67.6880972385 -64.1256606579 10.5110364211 0.1828575592 1
75.2881610394 -64.1256606579 10.4902047463 0.0929309126 1
82.8882248402 -64.1256606579 10.3882044109 0.1695381224 1
90.488288641 -64.1256606579 10.3991959348 0.200354656 1
98.0883524418 -64.1256606579 10.294892853 0.2530850293 1
105.6884162426 -64.1256606579 10.1511851265 0.2114625756 1
113.2884800434 -64.1256606579 10.1533872063 0.2321401047 1
120.8885438442 -64.1256606579 10.1635733982 0.1807089585 1
128.488607645 -64.1256606579 10.1769997932 0.1570303092 1
136.0886714458 -64.1256606579 10.1271195403 0.1336410761 1
143.6887352467 -64.1256606579 10.143408639 0.1126835682 1
151.2887990475 -64.1256606579 10.1139385199 0.1286297717 1
158.8888628483 -64.1256606579 10.0955668829 0.1322946616 1
166.4889266491 -64.1256606579 0 -0 0
-23.5126683712 -71.7257244587 10.1944654317 -0.2110441804 1
-15.9126045704 -71.7257244587 10.1201672599 -0.1850124516 1
-8.3125407696 -71.7257244587 10.2569101226 -0.1853207428 1
-0.7124769688 -71.7257244587 10.2457990572 -0.2538463197 1
6.887586832 -71.7257244587 10.2899413193 -0.2380165119 1
14.4876506329 -71.7257244587 10.4126474964 -0.2373307214 1
22.0877144337 -71.7257244587 10.4566387588 -0.1280131894 1
29.6877782345 -71.7257244587 10.4417275329 -0.0353811304 1
37.2878420353 -71.7257244587 10.5211345298 -0.1508739233 1
44.8879058361 -71.7257244587 10.5132888341 0.0374101897 1
52.4879696369 -71.7257244587 10.4720344423 -0.002802933 1
60.0880334377 -71.7257244587 10.5234309844 0.0523088323 1
67.6880972385 -71.7257244587 10.5547319756 0.0665216844 1
75.2881610394 -71.7257244587 10.4062677567 0.0913831651 1
82.8882248402 -71.7257244587 10.3994161428 0.1010156912 1
90.488288641 -71.7257244587 10.3119432422 0.1444784545 1
98.0883524418 -71.7257244587 10.3301890461 0.1754271129 1
105.6884162426 -71.7257244587 10.295295519 0.163645986 1
113.2884800434 -71.7257244587 10.2338134515 0.1876801139 1
120.8885438442 -71.7257244587 10.2690026865 0.126371067 1
128.488607645 -71.7257244587 10.1974791352 0.1165246245 1
136.0886714458 -71.7257244587 10.1690471393 0.142710499 1
143.6887352467 -71.7257244587 10.2220417622 0.049804753 1
151.2887990475 -71.7257244587 10.1580933653 0.0597644453 1
158.8888628483 -71.7257244587 10.2790190036 -0.0124543341 1
166.4889266491 -71.7257244587 0 -0 0
-23.5126683712 -79.3257882595 10.2196698077 -0.0786394148 1
-15.9126045704 -79.3257882595 10.1898284808 -0.1535919189 1
-8.3125407696 -79.3257882595 10.2349207831 -0.1850659307 1
-0.7124769688 -79.3257882595 10.2732369713 -0.194475103 1
6.887586832 -79.3257882595 10.3733623931 -0.1624096755 1
14.4876506329 -79.3257882595 10.4069095057 -0.2318727093 1
22.0877144337 -79.3257882595 10.4415450748 -0.1227124687 1
29.6877782345 -79.3257882595 10.453411139 -0.1155714386 1
37.2878420353 -79.3257882595 10.4909723284 -0.0735589022 1
44.8879058361 -79.3257882595 10.4663656598 -0.0792151014 1
52.4879696369 -79.3257882595 10.5299176823 0.0014250602 1
60.0880334377 -79.3257882595 10.4287793037 -0.0201836341 1
67.6880972385 -79.3257882595 10.4303836762 0.1049291016 1
75.2881610394 -79.3257882595 10.469731696 0.0925125174 1
82.8882248402 -79.3257882595 10.427181223 0.1124444853 1
90.488288641 -79.3257882595 10.4034365113 0.1430439568 1
98.0883524418 -79.3257882595 10.2982525976 0.1565143934 1
105.6884162426 -79.3257882595 10.2438360604 0.1620762177 1
113.2884800434 -79.3257882595 10.2133970261 0.1090123867 1
120.8885438442 -79.3257882595 10.2287801263 0.1896682774 1
128.488607645 -79.3257882595 10.2787044208 0.1324959946 1
136.0886714458 -79.3257882595 10.1420999745 0.1068197444 1
143.6887352467 -79.3257882595 10.18519153 0.0509655636 1
151.2887990475 -79.3257882595 10.2145106493 0.1496470503 1
158.8888628483 -79.3257882595 10.1808188287 0.0265822488 1
166.4889266491 -79.3257882595 0 -0 0
-23.5126683712 -86.9258520603 10.1828132838 -0.1094056152 1
-15.9126045704 -86.9258520603 10.2754201761 -0.1125514435 1
-8.3125407696 -86.9258520603 10.2556014581 -0.1427513947 1
-0.7124769688 -86.9258520603 10.3594704155 -0.1751219675 1
6.887586832 -86.9258520603 10.3690589001 -0.153371711 1
14.4876506329 -86.9258520603 10.3860841226 -0.1355411564 1
22.0877144337 -86.9258520603 10.4415010332 -0.1063761826 1
29.6877782345 -86.9258520603 10.3990071851 -0.0612209638 1
37.2878420353 -86.9258520603 10.3996489341 -0.0804073703 1
44.8879058361 -86.9258520603 10.4220912729 -0.0252672926 1
52.4879696369 -86.9258520603 10.4653212448 0.0279978715 1
60.0880334377 -86.9258520603 10.4489503545 0.0306435131 1
67.6880972385 -86.9258520603 10.3741425585 0.0539761213 1
75.2881610394 -86.9258520603 10.3656299473 0.0764184601 1
82.8882248402 -86.9258520603 10.358583292 0.0766072098 1
90.488288641 -86.9258520603 10.3502908887 0.1950885395 1
98.0883524418 -86.9258520603 10.2857133262 0.095689804 1
105.6884162426 -86.9258520603 10.3172722753 0.1563445187 1
113.2884800434 -86.9258520603 10.2447294756 0.1165592287 1
120.8885438442 -86.9258520603 10.2170776452 0.1471209502 1
128.488607645 -86.9258520603 10.2046704986 0.0458724677 1
136.0886714458 -86.9258520603 10.167807683 0.0766197931 1
143.6887352467 -86.9258520603 10.1760371697 -0.0082577992 1
151.2887990475 -86.9258520603 10.2135480259 0.0353024847 1
158.8888628483 -86.9258520603 10.22545184 0.0134987491 1
166.4889266491 -86.9258520603 0 -0 0
-23.5126683712 -94.5259158611 10.2359148648 -0.1245999657 1
-15.9126045704 -94.5259158611 10.1962145122 -0.1056841004 1
-8.3125407696 -94.5259158611 10.2576147882 -0.0365513785 1
-0.7124769688 -94.5259158611 10.3297297552 -0.0702274701 1
6.887586832 -94.5259158611 10.3472142686 -0.0476215482 1
14.4876506329 -94.5259158611 10.3306986703 -0.1218851159 1
22.0877144337 -94.5259158611 10.3795345082 -0.1270316909 1
29.6877782345 -94.5259158611 10.3871222459 -0.0433872634 1
37.2878420353 -94.5259158611 10.4204114006 -0.0667041424 1
44.8879058361 -94.5259158611 10.4021844716 -0.0872369635 1
52.4879696369 -94.5259158611 10.3952699411 -0.0212154658 1
60.0880334377 -94.5259158611 10.4512027676 0.004231139 1
67.6880972385 -94.5259158611 10.3601247478 0.0572540743 1
75.2881610394 -94.5259158611 10.3896263252 0.0235937119 1
82.8882248402 -94.5259158611 10.346786436 -0.0146752888 1
90.488288641 -94.5259158611 10.3016563838 0.0523245614 1
98.0883524418 -94.5259158611 10.3773701783 0.0654395194 1
105.6884162426 -94.5259158611 10.3272130926 0.051635625 1
113.2884800434 -94.5259158611 10.3340961648 0.1096761564 1
120.8885438442 -94.5259158611 10.2374814873 0.0872904425 1
128.488607645 -94.5259158611 10.2316113718 0.0272114144 1
136.0886714458 -94.5259158611 10.2141268583 0.1120669859 1
143.6887352467 -94.5259158611 10.2598797845 -0.0135427907 1
151.2887990475 -94.5259158611 10.1798750802 0.0468508203 1
158.8888628483 -94.5259158611 10.1773772926 0.0554263481 1
166.4889266491 -94.5259158611 0 -0 0
-23.5126683712 -102.1259796619 10.1534815811 -0.0146029348 1
-15.9126045704 -102.1259796619 10.2737654704 -0.0538093924 1
-8.3125407696 -102.1259796619 10.274872802 -0.0328644678 1
-0.7124769688 -102.1259796619 10.3251179709 -0.0438968875 1
6.887586832 -102.1259796619 10.3046889622 -0.1022236893 1
14.4876506329 -102.1259796619 10.312698241 -0.1045327272 1
22.0877144337 -102.1259796619 10.3601562061 -0.0647474372 1
29.6877782345 -102.1259796619 10.3469185608 -0.0545927036 1
37.2878420353 -102.1259796619 10.4490636044 0.0006165823 1
44.8879058361 -102.1259796619 10.4596650456 0.0026959748 1
52.4879696369 -102.1259796619 10.3473778517 -0.0066376976 1
60.0880334377 -102.1259796619 10.4101685838 -0.0121649179 1
67.6880972385 -102.1259796619 10.3283392991 -0.0284634541 1
75.2881610394 -102.1259796619 10.3974783126 0.059220217 1
82.8882248402 -102.1259796619 10.3154099449 -0.0207781957 1
90.488288641 -102.1259796619 10.2985420138 0.0536049135 1
98.0883524418 -102.1259796619 10.2946097285 0.0701708452 1
105.6884162426 -102.1259796619 10.3048714203 0.042808431 1
113.2884800434 -102.1259796619 10.2057023302 0.0283533501 1
120.8885438442 -102.1259796619 10.2162911881 0.0598682576 1
128.488607645 -102.1259796619 10.2909228178 0.041452579 1
136.0886714458 -102.1259796619 10.2368397383 0.0054328454 1
143.6887352467 -102.1259796619 10.1890105655 0.008059612 1
151.2887990475 -102.1259796619 10.2387461103 0.0610196307 1
158.8888628483 -102.1259796619 10.1786670822 -0.0705923861 1
166.4889266491 -102.1259796619 0 -0 0
-23.5126683712 -109.7260434628 0 -0 0
-15.9126045704 -109.7260434628 0 -0 0
-8.3125407696 -109.7260434628 0 -0 0
-0.7124769688 -109.7260434628 0 -0 0
6.887586832 -109.7260434628 0 -0 0
14.4876506329 -109.7260434628 0 -0 0
22.0877144337 -109.7260434628 0 -0 0
29.6877782345 -109.7260434628 0 -0 0
37.2878420353 -109.7260434628 0 -0 0
44.8879058361 -109.7260434628 0 -0 0
52.4879696369 -109.7260434628 0 -0 0
60.0880334377 -109.7260434628 0 -0 0
67.6880972385 -109.7260434628 0 -0 0
75.2881610394 -109.7260434628 0 -0 0
82.8882248402 -109.7260434628 0 -0 0
90.488288641 -109.7260434628 0 -0 0
98.0883524418 -109.7260434628 0 -0 0
105.6884162426 -109.7260434628 0 -0 0
113.2884800434 -109.7260434628 0 -0 0
120.8885438442 -109.7260434628 0 -0 0
128.488607645 -109.7260434628 0 -0 0
136.0886714458 -109.7260434628 0 -0 0
143.6887352467 -109.7260434628 0 -0 0
151.2887990475 -109.7260434628 0 -0 0
158.8888628483 -109.7260434628 0 -0 0
166.4889266491 -109.7260434628 0 -0 0
