TITLE = "B00018"
VARIABLES = "x", "y", "Vx", "Vy", "isValid"
ZONE T="Frame 0", I=101, J=78, F=POINT
-26.3626922965 37.525192678 9.6606120844 0.3844681872 1
-24.4626763463 37.525192678 10.4181920187 -0.5082549562 1
-22.5626603961 37.525192678 9.3415055575 0.2535679139 1
-20.6626444459 37.525192678 9.7364737329 0.4513272616 1
-18.7626284957 37.525192678 9.6026737925 0.5193038915 1
-16.8626125455 37.525192678 10.1343911223 0.4972854531 1
-14.9625965953 37.525192678 10.2698677892 0.3071555254 1
-13.0625806451 37.525192678 10.4037558129 0.1216869287 1
-11.1625646949 37.525192678 10.1619800362 0.5463816083 1
-9.2625487447 37.525192678 10.2448584546 0.524039936 1
-7.3625327945 37.525192678 9.7996356727 0.066491799 1
-5.4625168443 37.525192678 0 -0 0
-3.5625008941 37.525192678 0 -0 0
-1.6624849439 37.525192678 0 -0 0
0.2375310063 37.525192678 0 -0 0
2.1375469565 37.525192678 0 -0 0
4.0375629067 37.525192678 0 -0 0
5.9375788569 37.525192678 0 -0 0
7.8375948071 37.525192678 0 -0 0
9.7376107574 37.525192678 0 -0 0
11.6376267076 37.525192678 0 -0 0
13.5376426578 37.525192678 10.4573198306 0.314810112 1
15.437658608 37.525192678 10.3009186871 0.4968458236 1
17.3376745582 37.525192678 10.3761716178 -0.0517826925 1
19.2376905084 37.525192678 9.9994020588 0.2177683883 1
21.1377064586 37.525192678 -5.7194850169 5.4965826368 1
23.0377224088 37.525192678 10.7418191009 0.3154479287 1
24.937738359 37.525192678 10.7423869229 0.2033510574 1
26.8377543092 37.525192678 10.2638482469 -0.1991356476 1
28.7377702594 37.525192678 10.5483648192 0.4166791092 1
30.6377862096 37.525192678 10.6802285023 0.1772768599 1
32.5378021598 37.525192678 10.0755893005 0.0391026453 1
34.43781811 37.525192678 10.5750634636 0.142142677 1
36.3378340602 37.525192678 10.7036507666 0.4686985253 1
38.2378500104 37.525192678 10.6094599498 0.43695004 1
40.1378659606 37.525192678 10.1876201094 0.345702932 1
42.0378819108 37.525192678 10.1820331184 0.4497960297 1
43.937897861 37.525192678 10.7417294448 0.0239067219 1
45.8379138112 37.525192678 6.9602960233 6.9847218068 1
47.7379297614 37.525192678 10.4358243861 0.0602150852 1
49.6379457116 37.525192678 8.5569092501 -3.3503542835 1
51.5379616618 37.525192678 10.2346691168 0.2244391172 1
53.437977612 37.525192678 10.1415463087 -0.3472813513 1
55.3379935622 37.525192678 10.2251923092 0.3708042821 1
57.2380095124 37.525192678 10.527981425 -0.1675688339 1
59.1380254626 37.525192678 9.9190701884 0.4243635811 1
61.0380414128 37.525192678 10.5871576004 -0.0173775553 1
62.938057363 37.525192678 10.510378943 -0.0534271742 1
64.8380733132 37.525192678 9.9412813088 -0.1109163992 1
66.7380892634 37.525192678 10.5170591093 0.1214100958 1
68.6381052136 37.525192678 10.2220763663 0.1419940366 1
70.5381211638 37.525192678 10.3577968349 0.3622319001 1
72.438137114 37.525192678 10.5441855863 -0.2768423243 1
74.3381530643 37.525192678 10.1745948075 -0.0755950395 1
76.2381690145 37.525192678 10.4728397743 -0.252439348 1
78.1381849647 37.525192678 10.3102004533 -0.1852200762 1
80.0382009149 37.525192678 10.0398385353 -0.3719407126 1
81.9382168651 37.525192678 10.1260546774 0.0845457074 1
83.8382328153 37.525192678 10.3460109893 0.0488523535 1
85.7382487655 37.525192678 10.3572368775 -0.0345671474 1
87.6382647157 37.525192678 10.3581051261 0.0065543332 1
89.5382806659 37.525192678 0 -0 0
91.4382966161 37.525192678 0 -0 0
93.3383125663 37.525192678 0 -0 0
95.2383285165 37.525192678 0 -0 0
97.1383444667 37.525192678 0 -0 0
99.0383604169 37.525192678 0 -0 0
100.9383763671 37.525192678 10.1260279379 -0.1192261046 1
102.8383923173 37.525192678 10.2735106583 -0.1453647916 1
104.7384082675 37.525192678 10.4679118344 -0.5425090937 1
106.6384242177 37.525192678 10.3139534264 -0.3424139685 1
108.5384401679 37.525192678 10.4708107151 -0.1822920966 1
110.4384561181 37.525192678 10.1004020209 0.5850847334 1
112.3384720683 37.525192678 9.7476697357 -0.5472136799 1
114.2384880185 37.525192678 9.9582687814 -0.2708628912 1
116.1385039687 37.525192678 10.0781358485 0.0003216609 1
118.0385199189 37.525192678 9.9276001017 -0.4200884005 1
119.9385358691 37.525192678 10.0789789305 -0.0215025226 1
121.8385518193 37.525192678 10.036673832 -0.3561950557 1
123.7385677695 37.525192678 9.8306708414 -0.3767845016 1
125.6385837197 37.525192678 10.1198259375 0.2387699378 1
127.5385996699 37.525192678 9.9943105358 -0.472375212 1
129.4386156201 37.525192678 10.1592006969 0.21387228 1
131.3386315703 37.525192678 10.2522826093 0.3551113178 1
133.2386475205 37.525192678 10.0770411002 -0.0268095349 1
135.1386634707 37.525192678 1.7396225795 -1.7493510534 1
137.0386794209 37.525192678 10.289618872 -0.5556767443 1
138.9386953712 37.525192678 10.1291627558 0.0391655618 1
140.8387113214 37.525192678 9.9986014455 0.2711798334 1
142.7387272716 37.525192678 10.0167182705 -0.2895671996 1
144.6387432218 37.525192678 10.0028892094 -0.07450501 1
146.538759172 37.525192678 9.8365802798 -0.3777471251 1
148.4387751222 37.525192678 10.1248702731 0.2930897408 1
150.3387910724 37.525192678 9.8578759642 0.3227202972 1
152.2388070226 37.525192678 9.62437057 0.0783098893 1
154.1388229728 37.525192678 10.352757218 0.3857453934 1
156.038838923 37.525192678 9.9707356988 0.1675428808 1
157.9388548732 37.525192678 10.5222009656 -0.4947892384 1
159.8388708234 37.525192678 10.1013457694 0.140346409 1
161.7388867736 37.525192678 9.6051873092 -0.0630644191 1
163.6389027238 37.525192678 10.1849445825 -0.4703375018 1
-26.3626922965 35.6251767278 9.8295351974 0.5629003525 1
-24.4626763463 35.6251767278 10.0202636189 0.6165799794 1
-22.5626603961 35.6251767278 10.0977925564 0.4980522487 1
-20.6626444459 35.6251767278 9.740209404 0.1729993199 1
-18.7626284957 35.6251767278 10.1926172576 0.0218037357 1
-16.8626125455 35.6251767278 10.2138924941 0.4852841183 1
-14.9625965953 35.6251767278 10.1518253025 0.0961538137 1
-13.0625806451 35.6251767278 10.2088308564 0.876124967 1
-11.1625646949 35.6251767278 9.9730085597 -0.2431709515 1
-9.2625487447 35.6251767278 9.8515371202 0.1615563696 1
-7.3625327945 35.6251767278 10.3153596117 -0.3100528332 1
-5.4625168443 35.6251767278 0 -0 0
-3.5625008941 35.6251767278 0 -0 0
-1.6624849439 35.6251767278 0 -0 0
0.2375310063 35.6251767278 0 -0 0
2.1375469565 35.6251767278 0 -0 0
4.0375629067 35.6251767278 0 -0 0
5.9375788569 35.6251767278 0 -0 0
7.8375948071 35.6251767278 0 -0 0
9.7376107574 35.6251767278 0 -0 0
11.6376267076 35.6251767278 0 -0 0
13.5376426578 35.6251767278 1.2630075774 -2.3799842341 1
15.437658608 35.6251767278 10.5124205855 -0.2804954174 1
17.3376745582 35.6251767278 10.5326954486 0.0721173264 1
19.2376905084 35.6251767278 10.5930277159 0.5182838567 1
21.1377064586 35.6251767278 9.9823139197 0.5979197127 1
23.0377224088 35.6251767278 10.4411801587 0.1498877062 1
24.937738359 35.6251767278 10.5882067341 0.1553409994 1
26.8377543092 35.6251767278 10.4736671272 0.2407140597 1
28.7377702594 35.6251767278 10.2431958843 -0.0648276559 1
30.6377862096 35.6251767278 10.5912267292 -0.1538781893 1
32.5378021598 35.6251767278 10.6318063408 0.5347239552 1
34.43781811 35.6251767278 10.1728425811 0.3322403599 1
36.3378340602 35.6251767278 10.6892066962 0.3446986263 1
38.2378500104 35.6251767278 10.3620956092 -0.1812350983 1
40.1378659606 35.6251767278 10.5997204655 0.3726768364 1
42.0378819108 35.6251767278 10.5402580198 -0.0800715531 1
43.937897861 35.6251767278 10.7538220086 -0.0206956177 1
45.8379138112 35.6251767278 10.3604125911 -0.2848909259 1
47.7379297614 35.6251767278 -3.5660731647 -9.0963024009 1
49.6379457116 35.6251767278 10.5524072085 -0.3029149489 1
51.5379616618 35.6251767278 10.5307167227 -0.0271602947 1
53.437977612 35.6251767278 10.3427267446 0.0545942765 1
55.3379935622 35.6251767278 10.2854585141 0.0494673629 1
57.2380095124 35.6251767278 10.4298300104 0.4512580534 1
59.1380254626 35.6251767278 10.1463657176 -0.070366673 1
61.0380414128 35.6251767278 10.5669550913 0.1549485574 1
62.938057363 35.6251767278 10.7147854258 0.1986448983 1
64.8380733132 35.6251767278 10.6170115105 0.0887965078 1
66.7380892634 35.6251767278 10.2613520321 0.0269259305 1
68.6381052136 35.6251767278 4.2225650537 -8.0442855248 1
70.5381211638 35.6251767278 10.1901871052 0.0809877756 1
72.438137114 35.6251767278 10.1678532975 -0.3387530109 1
74.3381530643 35.6251767278 10.4277946595 0.388060723 1
76.2381690145 35.6251767278 10.247103003 -0.0039527332 1
78.1381849647 35.6251767278 10.2818423845 -0.2249046997 1
80.0382009149 35.6251767278 10.0296271767 0.2018890337 1
81.9382168651 35.6251767278 10.4763693936 -0.0139596129 1
83.8382328153 35.6251767278 10.4858288992 0.3732517365 1
85.7382487655 35.6251767278 10.2565043108 -0.4034626982 1
87.6382647157 35.6251767278 10.3927344035 -0.008627434 1
89.5382806659 35.6251767278 0 -0 0
91.4382966161 35.6251767278 0 -0 0
93.3383125663 35.6251767278 0 -0 0
95.2383285165 35.6251767278 0 -0 0
97.1383444667 35.6251767278 0 -0 0
99.0383604169 35.6251767278 0 -0 0
100.9383763671 35.6251767278 10.2982573164 -0.4796467941 1
102.8383923173 35.6251767278 10.5061619602 0.0019205282 1
104.7384082675 35.6251767278 10.1101493698 -0.5981957591 1
106.6384242177 35.6251767278 10.1292052244 0.1031304743 1
108.5384401679 35.6251767278 10.1670070697 -0.2628756333 1
110.4384561181 35.6251767278 9.7192566148 0.2910394472 1
112.3384720683 35.6251767278 10.1191102616 -0.2977958999 1
114.2384880185 35.6251767278 10.2665237738 -0.3190200167 1
116.1385039687 35.6251767278 10.0772864749 -0.1402237217 1
118.0385199189 35.6251767278 9.7286060164 0.0152030015 1
119.9385358691 35.6251767278 9.8695139558 -0.1733595173 1
121.8385518193 35.6251767278 10.0225176049 -0.0393346501 1
123.7385677695 35.6251767278 10.1409596117 0.0957936163 1
125.6385837197 35.6251767278 10.3426591093 -0.0614498228 1
127.5385996699 35.6251767278 10.0414303244 -0.275694097 1
129.4386156201 35.6251767278 9.8126782767 0.0307371015 1
131.3386315703 35.6251767278 10.3494525254 -0.9036257977 1
133.2386475205 35.6251767278 10.3568090448 -0.1374176429 1
135.1386634707 35.6251767278 10.2866539288 -0.302528012 1
137.0386794209 35.6251767278 9.8922630129 -0.0425048585 1
138.9386953712 35.6251767278 10.2370772484 0.119209589 1
140.8387113214 35.6251767278 10.1228600888 0.0968018543 1
142.7387272716 35.6251767278 10.1521005625 -0.138587891 1
144.6387432218 35.6251767278 10.1987044353 -0.1798226214 1
146.538759172 35.6251767278 10.2332141713 -0.2469758308 1
148.4387751222 35.6251767278 10.1157174858 -0.4298113692 1
150.3387910724 35.6251767278 10.1785129366 -0.3070823849 1
152.2388070226 35.6251767278 10.2742813863 0.0334590294 1
154.1388229728 35.6251767278 9.988059775 0.2236416497 1
156.038838923 35.6251767278 8.8980491582 -6.4113411275 1
157.9388548732 35.6251767278 9.5129138747 -0.1853883781 1
159.8388708234 35.6251767278 9.8367737482 -0.4633852213 1
161.7388867736 35.6251767278 10.2916620874 -0.1458382387 1
163.6389027238 35.6251767278 9.7222089747 0.2667056792 1
-26.3626922965 33.7251607776 3.8391986929 0.0804160213 1
-24.4626763463 33.7251607776 10.171710083 0.4011929831 1
-22.5626603961 33.7251607776 9.3397989456 -0.8099902196 1
-20.6626444459 33.7251607776 10.5467337072 0.0014321383 1
-18.7626284957 33.7251607776 9.8327234943 0.2347259756 1
-16.8626125455 33.7251607776 10.2122849759 0.5473631067 1
-14.9625965953 33.7251607776 1.0765456854 -1.5832379515 1
-13.0625806451 33.7251607776 10.0276657528 0.1896077202 1
-11.1625646949 33.7251607776 9.9001590418 0.1706069175 1
-9.2625487447 33.7251607776 10.3294749431 0.4684122549 1
-7.3625327945 33.7251607776 9.9718351658 -0.0736053032 1
-5.4625168443 33.7251607776 0 -0 0
-3.5625008941 33.7251607776 0 -0 0
-1.6624849439 33.7251607776 0 -0 0
0.2375310063 33.7251607776 0 -0 0
2.1375469565 33.7251607776 0 -0 0
4.0375629067 33.7251607776 0 -0 0
5.9375788569 33.7251607776 0 -0 0
7.8375948071 33.7251607776 0 -0 0
9.7376107574 33.7251607776 0 -0 0
11.6376267076 33.7251607776 0 -0 0
13.5376426578 33.7251607776 10.769769785 0.9074298905 1
15.437658608 33.7251607776 10.1765074711 -0.039857644 1
17.3376745582 33.7251607776 10.6119231333 0.2188167356 1
19.2376905084 33.7251607776 10.3501556181 0.5996923869 1
21.1377064586 33.7251607776 6.7656872226 0.8481892257 1
23.0377224088 33.7251607776 10.5306427957 0.4770797982 1
24.937738359 33.7251607776 10.4534976493 0.4087445438 1
26.8377543092 33.7251607776 10.4875307923 -0.0698940123 1
28.7377702594 33.7251607776 10.7068563656 -0.2020014971 1
30.6377862096 33.7251607776 10.7295299228 0.6304640925 1
32.5378021598 33.7251607776 10.6094096166 0.42302975 1
34.43781811 33.7251607776 10.4673644603 -0.1043007224 1
36.3378340602 33.7251607776 10.4443055391 0.3471712473 1
38.2378500104 33.7251607776 10.3692555143 -0.4121333873 1
40.1378659606 33.7251607776 10.3836980119 0.1675900682 1
42.0378819108 33.7251607776 10.2822151651 -0.4339048783 1
43.937897861 33.7251607776 10.4113010819 -0.2033612814 1
45.8379138112 33.7251607776 10.5617157143 -0.1575407199 1
47.7379297614 33.7251607776 8.103996491 -3.688829675 1
49.6379457116 33.7251607776 10.4040232083 0.4590620668 1
51.5379616618 33.7251607776 10.7435697543 0.0432637896 1
53.437977612 33.7251607776 10.241791272 -0.0856207942 1
55.3379935622 33.7251607776 10.6011927131 -0.1098051354 1
57.2380095124 33.7251607776 10.9276667699 -0.0081366848 1
59.1380254626 33.7251607776 10.7637172114 0.0907005204 1
61.0380414128 33.7251607776 10.3500911286 0.15592691 1
62.938057363 33.7251607776 10.3153202888 0.20107741 1
64.8380733132 33.7251607776 10.3441313569 -0.1748356972 1
66.7380892634 33.7251607776 10.3582954487 -0.0420605103 1
68.6381052136 33.7251607776 10.0066799325 -0.2855507634 1
70.5381211638 33.7251607776 10.2907041827 -0.2972044842 1
72.438137114 33.7251607776 10.5822988686 -0.1759131433 1
74.3381530643 33.7251607776 10.701006698 0.338128564 1
76.2381690145 33.7251607776 9.9180776796 -0.2241937425 1
78.1381849647 33.7251607776 10.0562031339 0.1556728843 1
80.0382009149 33.7251607776 10.2250995073 -0.6545603505 1
81.9382168651 33.7251607776 10.3039276718 0.0114012681 1
83.8382328153 33.7251607776 10.6088008988 -0.3790432063 1
85.7382487655 33.7251607776 10.3065748863 -0.3615736355 1
87.6382647157 33.7251607776 10.1529420716 0.0385875159 1
89.5382806659 33.7251607776 0 -0 0
91.4382966161 33.7251607776 0 -0 0
93.3383125663 33.7251607776 0 -0 0
95.2383285165 33.7251607776 0 -0 0
97.1383444667 33.7251607776 0 -0 0
99.0383604169 33.7251607776 0 -0 0
100.9383763671 33.7251607776 10.36239289 -0.3676647455 1
102.8383923173 33.7251607776 9.6843426399 0.1219102825 1
104.7384082675 33.7251607776 10.4015977747 -0.1580959585 1
106.6384242177 33.7251607776 10.1398947489 -0.3335907067 1
108.5384401679 33.7251607776 10.0881505927 -0.011612825 1
110.4384561181 33.7251607776 10.1819749206 -0.4110740297 1
112.3384720683 33.7251607776 10.3087061849 0.1625960659 1
114.2384880185 33.7251607776 9.9087565904 -0.3331550095 1
116.1385039687 33.7251607776 10.2003497034 -0.0999641981 1
118.0385199189 33.7251607776 10.3133415629 -0.186140231 1
119.9385358691 33.7251607776 9.7668891734 -0.0441273194 1
121.8385518193 33.7251607776 9.9379168455 -0.0785631285 1
123.7385677695 33.7251607776 10.17095823 -0.0978273943 1
125.6385837197 33.7251607776 9.8898721834 -0.2667843249 1
127.5385996699 33.7251607776 10.1507840334 -0.0259365675 1
129.4386156201 33.7251607776 9.998153165 -0.4233065828 1
131.3386315703 33.7251607776 9.6783592746 -0.1918640655 1
133.2386475205 33.7251607776 10.3131134903 -0.2145840237 1
135.1386634707 33.7251607776 9.8495237901 0.1671449335 1
137.0386794209 33.7251607776 9.5712076453 -0.2147310911 1
138.9386953712 33.7251607776 10.2243004669 0.0083293668 1
140.8387113214 33.7251607776 10.1656779573 -0.5414489496 1
142.7387272716 33.7251607776 10.1317753661 -0.0494429828 1
144.6387432218 33.7251607776 10.4648179123 -0.2080218259 1
146.538759172 33.7251607776 9.7312044706 0.1422055935 1
148.4387751222 33.7251607776 10.3744429851 -0.1284756261 1
150.3387910724 33.7251607776 10.037516914 0.1833797667 1
152.2388070226 33.7251607776 10.2311332059 -0.3595516544 1
154.1388229728 33.7251607776 9.9902052299 0.0277257574 1
156.038838923 33.7251607776 9.8140058162 -0.1057745429 1
157.9388548732 33.7251607776 9.3470941214 0.2444379339 1
159.8388708234 33.7251607776 9.6369570288 -0.3877775985 1
161.7388867736 33.7251607776 10.0266103274 0.2202496604 1
163.6389027238 33.7251607776 10.1213894141 -0.0519557131 1
-26.3626922965 31.8251448274 9.4793793455 0.1955667054 1
-24.4626763463 31.8251448274 9.9773435111 0.5398839 1
-22.5626603961 31.8251448274 9.6469985126 0.0845551449 1
-20.6626444459 31.8251448274 10.1427936296 0.2659278732 1
-18.7626284957 31.8251448274 10.4597657121 0.296493527 1
-16.8626125455 31.8251448274 10.2645717874 0.708449175 1
-14.9625965953 31.8251448274 9.8353864379 0.4629369408 1
-13.0625806451 31.8251448274 10.3409477787 -0.1381694959 1
-11.1625646949 31.8251448274 10.2557351558 0.6100051984 1
-9.2625487447 31.8251448274 10.2938610214 0.5988736851 1
-7.3625327945 31.8251448274 10.3161507875 0.5124750849 1
-5.4625168443 31.8251448274 0 -0 0
-3.5625008941 31.8251448274 0 -0 0
-1.6624849439 31.8251448274 0 -0 0
0.2375310063 31.8251448274 0 -0 0
2.1375469565 31.8251448274 0 -0 0
4.0375629067 31.8251448274 0 -0 0
5.9375788569 31.8251448274 0 -0 0
7.8375948071 31.8251448274 0 -0 0
9.7376107574 31.8251448274 0 -0 0
11.6376267076 31.8251448274 0 -0 0
13.5376426578 31.8251448274 -0.1126096413 6.2879534854 1
15.437658608 31.8251448274 10.2236241138 0.2915325558 1
17.3376745582 31.8251448274 10.2324654641 0.4783459941 1
19.2376905084 31.8251448274 10.5482877464 0.3311652731 1
21.1377064586 31.8251448274 10.1850531135 0.1727272058 1
23.0377224088 31.8251448274 10.3498237332 0.348743375 1
24.937738359 31.8251448274 1.0035530323 -0.4692875816 1
26.8377543092 31.8251448274 10.4722027441 0.2198407027 1
28.7377702594 31.8251448274 10.5446606064 0.3369575294 1
30.6377862096 31.8251448274 -8.4381746812 -1.5188868886 1
32.5378021598 31.8251448274 10.6780673183 0.0921279399 1
34.43781811 31.8251448274 10.3211998418 0.5348883247 1
36.3378340602 31.8251448274 10.4848300987 0.129421734 1
38.2378500104 31.8251448274 10.6048843426 -0.051151954 1
40.1378659606 31.8251448274 10.3847644477 0.0167106397 1
42.0378819108 31.8251448274 10.4868717413 0.3530523732 1
43.937897861 31.8251448274 2.177798706 -3.8355054905 1
45.8379138112 31.8251448274 10.5759238477 0.3729568151 1
47.7379297614 31.8251448274 10.2133938803 0.0736493447 1
49.6379457116 31.8251448274 10.4664222847 -0.4427344317 1
51.5379616618 31.8251448274 10.5856350195 0.2461067957 1
53.437977612 31.8251448274 10.5059606272 -0.4225476518 1
55.3379935622 31.8251448274 10.5072944583 -0.0974837126 1
57.2380095124 31.8251448274 10.6187904764 -0.070383975 1
59.1380254626 31.8251448274 10.2958664869 0.1394718688 1
61.0380414128 31.8251448274 10.7732758106 -0.3087575384 1
62.938057363 31.8251448274 10.4106294476 0.3021929813 1
64.8380733132 31.8251448274 -3.8149490758 1.4384936746 1
66.7380892634 31.8251448274 10.3281851535 0.1053868196 1
68.6381052136 31.8251448274 10.5127744912 -0.1791855912 1
70.5381211638 31.8251448274 10.4803583039 -0.0276880074 1
72.438137114 31.8251448274 10.5460479167 -0.1585198589 1
74.3381530643 31.8251448274 10.4399989002 -0.3993345851 1
76.2381690145 31.8251448274 9.9292862657 0.1194423803 1
78.1381849647 31.8251448274 10.1207822693 0.0514641774 1
80.0382009149 31.8251448274 10.0643759957 -0.359724675 1
81.9382168651 31.8251448274 10.2502566959 -0.0363909413 1
83.8382328153 31.8251448274 10.4285763978 -0.2675644903 1
85.7382487655 31.8251448274 10.2884737905 -0.1940889526 1
87.6382647157 31.8251448274 10.336693046 -0.6108058117 1
89.5382806659 31.8251448274 10.6254722156 -0.5319210222 1
91.4382966161 31.8251448274 0 -0 0
93.3383125663 31.8251448274 0 -0 0
95.2383285165 31.8251448274 0 -0 0
97.1383444667 31.8251448274 0 -0 0
99.0383604169 31.8251448274 0 -0 0
100.9383763671 31.8251448274 10.3020401748 0.2337539146 1
102.8383923173 31.8251448274 10.5475500497 -0.1222287976 1
104.7384082675 31.8251448274 9.5450783958 0.1357157498 1
106.6384242177 31.8251448274 9.6959318712 0.4185744707 1
108.5384401679 31.8251448274 10.1595939254 0.0044497741 1
110.4384561181 31.8251448274 10.0369821232 0.0494838785 1
112.3384720683 31.8251448274 10.2337159309 -0.0912392435 1
114.2384880185 31.8251448274 9.8821397375 0.0553524211 1
116.1385039687 31.8251448274 9.8566380808 -0.0322942865 1
118.0385199189 31.8251448274 10.4962258616 -0.0402406486 1
119.9385358691 31.8251448274 10.0074286396 -0.2257760942 1
121.8385518193 31.8251448274 9.9686421501 0.0783460663 1
123.7385677695 31.8251448274 10.1694954199 0.0207616801 1
125.6385837197 31.8251448274 10.5007275419 -0.1828143041 1
127.5385996699 31.8251448274 9.8776128907 -0.4546115063 1
129.4386156201 31.8251448274 9.8205507119 0.0653388529 1
131.3386315703 31.8251448274 10.5324311991 0.3449086103 1
133.2386475205 31.8251448274 9.8170635612 -0.1137389936 1
135.1386634707 31.8251448274 10.2995266581 0.1592205921 1
137.0386794209 31.8251448274 9.8771756205 -0.0246027364 1
138.9386953712 31.8251448274 9.4807493537 0.1396157904 1
140.8387113214 31.8251448274 10.0788357953 -0.5063116208 1
142.7387272716 31.8251448274 10.0552908437 0.5534872479 1
144.6387432218 31.8251448274 10.0558460824 -0.0744625414 1
146.538759172 31.8251448274 10.117966753 -0.2775123857 1
148.4387751222 31.8251448274 10.3513463141 -0.2450120475 1
150.3387910724 31.8251448274 10.0907616302 -0.1945380196 1
152.2388070226 31.8251448274 10.1217228719 -0.1132277965 1
154.1388229728 31.8251448274 10.0743592817 0.1351196154 1
156.038838923 31.8251448274 9.7556569936 -0.2781124525 1
157.9388548732 31.8251448274 10.0897974338 -0.4152147261 1
159.8388708234 31.8251448274 10.2355043342 0.2404804819 1
161.7388867736 31.8251448274 11.1113265153 0.4720677073 1
163.6389027238 31.8251448274 10.2144288578 0.1435205498 1
-26.3626922965 29.9251288772 9.3219589536 0.0215056684 1
-24.4626763463 29.9251288772 10.2094537304 0.1697897886 1
-22.5626603961 29.9251288772 10.3615199226 0.1104374469 1
-20.6626444459 29.9251288772 9.9606328713 0.059751862 1
-18.7626284957 29.9251288772 10.1346443615 0.5449274492 1
-16.8626125455 29.9251288772 10.2896031428 0.3902824642 1
-14.9625965953 29.9251288772 10.5871623191 0.7035983078 1
-13.0625806451 29.9251288772 9.9893149605 0.5544789702 1
-11.1625646949 29.9251288772 10.2805431574 0.4785779989 1
-9.2625487447 29.9251288772 9.9211385705 0.1438516482 1
-7.3625327945 29.9251288772 10.0510439755 0.3234406918 1
-5.4625168443 29.9251288772 0 -0 0
-3.5625008941 29.9251288772 0 -0 0
-1.6624849439 29.9251288772 0 -0 0
0.2375310063 29.9251288772 0 -0 0
2.1375469565 29.9251288772 0 -0 0
4.0375629067 29.9251288772 0 -0 0
5.9375788569 29.9251288772 0 -0 0
7.8375948071 29.9251288772 0 -0 0
9.7376107574 29.9251288772 0 -0 0
11.6376267076 29.9251288772 0 -0 0
13.5376426578 29.9251288772 10.3605478617 0.4875530469 1
15.437658608 29.9251288772 10.388586629 0.4646411933 1
17.3376745582 29.9251288772 10.6027451794 -0.6253969496 1
19.2376905084 29.9251288772 10.4463865045 0.6425322761 1
21.1377064586 29.9251288772 10.5754032131 0.1459396917 1
23.0377224088 29.9251288772 4.5621037352 -0.1113332215 1
24.937738359 29.9251288772 8.4725019591 -10.20664136 1
26.8377543092 29.9251288772 10.457623403 0.1503053149 1
28.7377702594 29.9251288772 1.5788723283 -0.5773782406 1
30.6377862096 29.9251288772 9.9468006645 0.1334185088 1
32.5378021598 29.9251288772 9.8314116839 0.3430871758 1
34.43781811 29.9251288772 10.4783669946 0.1769441886 1
36.3378340602 29.9251288772 10.3235529214 0.2626483472 1
38.2378500104 29.9251288772 10.4141795148 -0.0233042957 1
40.1378659606 29.9251288772 4.0750005417 3.1927262669 1
42.0378819108 29.9251288772 10.3098905893 0.0124598393 1
43.937897861 29.9251288772 10.7187570339 0.2571840435 1
45.8379138112 29.9251288772 10.6243035404 -0.2658334983 1
47.7379297614 29.9251288772 10.511843326 -0.2657918161 1
49.6379457116 29.9251288772 10.8413012009 -0.1769693552 1
51.5379616618 29.9251288772 10.2457455781 -0.0483553126 1
53.437977612 29.9251288772 10.7281457584 -0.3442983197 1
55.3379935622 29.9251288772 10.7388431474 -0.5211528521 1
57.2380095124 29.9251288772 10.4536895448 0.9804563613 1
59.1380254626 29.9251288772 10.2017999303 0.1054229966 1
61.0380414128 29.9251288772 10.440497514 -0.1649129684 1
62.938057363 29.9251288772 10.1130907192 -0.2461885873 1
64.8380733132 29.9251288772 10.4399989002 0.2887854613 1
66.7380892634 29.9251288772 10.6516014652 -0.2517016513 1
68.6381052136 29.9251288772 10.769952243 0.0316541104 1
70.5381211638 29.9251288772 10.2679346778 -0.1345431424 1
72.438137114 29.9251288772 10.6264993286 0.0113847525 1
74.3381530643 29.9251288772 10.2242454149 0.1821686228 1
76.2381690145 29.9251288772 10.2081576492 -0.045995155 1
78.1381849647 29.9251288772 10.2552255316 -0.2915986182 1
80.0382009149 29.9251288772 10.2977917338 -0.4582441515 1
81.9382168651 29.9251288772 10.3543946216 -0.1930783552 1
83.8382328153 29.9251288772 10.1767025124 -0.2882231445 1
85.7382487655 29.9251288772 10.4004841515 0.1206338627 1
87.6382647157 29.9251288772 10.2476330751 -0.2506690332 1
89.5382806659 29.9251288772 10.6963933408 -0.3836015115 1
91.4382966161 29.9251288772 0 -0 0
93.3383125663 29.9251288772 0 -0 0
95.2383285165 29.9251288772 0 -0 0
97.1383444667 29.9251288772 0 -0 0
99.0383604169 29.9251288772 0 -0 0
100.9383763671 29.9251288772 10.2524461923 -0.1420711094 1
102.8383923173 29.9251288772 9.992382143 -0.0664579813 1
104.7384082675 29.9251288772 10.185831706 -0.0657470242 1
106.6384242177 29.9251288772 9.9343510492 -0.4780880362 1
108.5384401679 29.9251288772 10.207281536 -0.3398414675 1
110.4384561181 29.9251288772 10.2132208598 -0.1809700623 1
112.3384720683 29.9251288772 9.8063630264 -0.4442617313 1
114.2384880185 29.9251288772 9.6812345616 -0.1135337283 1
116.1385039687 29.9251288772 10.2440877266 -0.2591611966 1
118.0385199189 29.9251288772 9.9542893087 0.2773684641 1
119.9385358691 29.9251288772 10.0485115838 -0.420491853 1
121.8385518193 29.9251288772 10.0216383459 0.3632299141 1
123.7385677695 29.9251288772 9.7023525067 -0.2937826095 1
125.6385837197 29.9251288772 10.4130863395 0.0485582186 1
127.5385996699 29.9251288772 10.4551932507 -0.0297713322 1
129.4386156201 29.9251288772 10.1568523361 0.201655456 1
131.3386315703 29.9251288772 9.8390702028 -0.3183869187 1
133.2386475205 29.9251288772 10.3594499676 0.0204541753 1
135.1386634707 29.9251288772 9.9989663616 0.1704818709 1
137.0386794209 29.9251288772 10.268590583 0.205676611 1
138.9386953712 29.9251288772 10.0302673528 0.2132462602 1
140.8387113214 29.9251288772 10.2164421879 -0.078865128 1
142.7387272716 29.9251288772 10.3423649744 -0.0371978463 1
144.6387432218 29.9251288772 10.2303813529 0.1271197741 1
146.538759172 29.9251288772 10.2524807964 -0.3725156127 1
148.4387751222 29.9251288772 10.1502303676 -0.0940704889 1
150.3387910724 29.9251288772 10.4279204926 -0.3255617665 1
152.2388070226 29.9251288772 9.5019176321 -0.2885668262 1
154.1388229728 29.9251288772 9.967728287 -0.0763626216 1
156.038838923 29.9251288772 -6.5453506587 -1.6212906766 1
157.9388548732 29.9251288772 9.7850453212 -0.1804714485 1
159.8388708234 29.9251288772 9.5895258033 -0.2204234674 1
161.7388867736 29.9251288772 9.8922771691 -0.3524137701 1
163.6389027238 29.9251288772 9.5724093517 -0.5123775642 1
-26.3626922965 28.025112927 10.1450633447 0.4692364619 1
-24.4626763463 28.025112927 9.8482921984 0.3440592367 1
-22.5626603961 28.025112927 10.2460239839 0.4828122837 1
-20.6626444459 28.025112927 9.6413847821 -0.3426860827 1
-18.7626284957 28.025112927 10.1813064321 0.0867745267 1
-16.8626125455 28.025112927 9.775452118 0.1766791525 1
-14.9625965953 28.025112927 9.3742237443 0.2200884367 1
-13.0625806451 28.025112927 9.9979361028 -0.2968057504 1
-11.1625646949 28.025112927 10.2854821078 0.2485251512 1
-9.2625487447 28.025112927 10.267436064 0.4459376713 1
-7.3625327945 28.025112927 10.4611058349 0.2777459635 1
-5.4625168443 28.025112927 0 -0 0
-3.5625008941 28.025112927 0 -0 0
-1.6624849439 28.025112927 0 -0 0
0.2375310063 28.025112927 0 -0 0
2.1375469565 28.025112927 0 -0 0
4.0375629067 28.025112927 0 -0 0
5.9375788569 28.025112927 0 -0 0
7.8375948071 28.025112927 0 -0 0
9.7376107574 28.025112927 0 -0 0
11.6376267076 28.025112927 0 -0 0
13.5376426578 28.025112927 10.12005401 0.339135229 1
15.437658608 28.025112927 -0.0350107092 -7.4694200146 1
17.3376745582 28.025112927 10.1819230144 0.2278688564 1
19.2376905084 28.025112927 10.5652311774 0.4596424722 1
21.1377064586 28.025112927 10.4974873387 0.4387061986 1
23.0377224088 28.025112927 10.3829367214 0.3901157353 1
24.937738359 28.025112927 10.3564409829 -0.2137582438 1
26.8377543092 28.025112927 10.1869720688 0.2000101878 1
28.7377702594 28.025112927 10.6303498224 -0.4199185258 1
30.6377862096 28.025112927 2.5497944706 5.8193737151 1
32.5378021598 28.025112927 10.4966080798 -0.1860694499 1
34.43781811 28.025112927 10.3306263162 0.3189515949 1
36.3378340602 28.025112927 10.6931720127 0.4605689186 1
38.2378500104 28.025112927 10.550969565 0.0677894532 1
40.1378659606 28.025112927 10.057006893 -0.2245311326 1
42.0378819108 28.025112927 7.9165302934 9.2054178134 1
43.937897861 28.025112927 10.5225422879 -0.4100461303 1
45.8379138112 28.025112927 10.1213076226 -0.0813235928 1
47.7379297614 28.025112927 8.177357206 -7.4283905495 1
49.6379457116 28.025112927 10.2772368919 0.1180487783 1
51.5379616618 28.025112927 10.580496309 -0.3688688113 1
53.437977612 28.025112927 10.2931233246 -0.1461481028 1
55.3379935622 28.025112927 10.5774794597 -0.1198072963 1
57.2380095124 28.025112927 10.2177618629 0.0839094636 1
59.1380254626 28.025112927 10.2456873803 -0.0592516753 1
61.0380414128 28.025112927 10.2863645126 -0.2258303597 1
62.938057363 28.025112927 10.2914701919 0.0418324377 1
64.8380733132 28.025112927 10.3583457819 0.1735891627 1
66.7380892634 28.025112927 10.6579466008 -0.4347408821 1
68.6381052136 28.025112927 10.618963497 -0.0339151745 1
70.5381211638 28.025112927 10.3696518887 -0.3771391938 1
72.438137114 28.025112927 10.6442984249 -0.1820986282 1