TITLE = "B00011"
VARIABLES = "x", "y", "Vx", "Vy", "isValid"
ZONE T="Frame 0", I=51, J=39, F=POINT
-25.4126843214 36.5751847029 10.1189718451 0.2207805189 1
-21.612652421 36.5751847029 10.2302460823 0.3493583844 1
-17.8126205206 36.5751847029 10.1578574282 0.2054068562 1
-14.0125886202 36.5751847029 10.1481147981 0.344713569 1
-10.2125567198 36.5751847029 10.2267919629 0.4026644443 1
-6.4125248194 36.5751847029 0 -0 0
-2.612492919 36.5751847029 0 -0 0
1.1875389814 36.5751847029 0 -0 0
4.9875708818 36.5751847029 0 -0 0
8.7876027822 36.5751847029 0 -0 0
12.5876346827 36.5751847029 0 -0 0
16.3876665831 36.5751847029 10.5058206378 0.4093996626 1
20.1876984835 36.5751847029 10.5429571404 0.2374581274 1
23.9877303839 36.5751847029 10.564999959 0.1435221227 1
27.7877622843 36.5751847029 10.536571109 0.0084402572 1
31.5877941847 36.5751847029 10.5732766332 0.0466982476 1
35.3878260851 36.5751847029 10.5076106141 0.233288332 1
39.1878579855 36.5751847029 10.6935542308 0.1431509149 1
42.9878898859 36.5751847029 10.5923875398 0.140640544 1
46.7879217863 36.5751847029 10.6022339823 0.2264901972 1
50.5879536867 36.5751847029 10.5892322741 -0.0260899267 1
54.3879855871 36.5751847029 10.5702503464 -0.0797200068 1
58.1880174875 36.5751847029 10.6693848323 0.1340311588 1
61.9880493879 36.5751847029 10.6337142857 -0.0402776121 1
65.7880812883 36.5751847029 10.5466314678 -0.004468649 1
69.5881131887 36.5751847029 10.4532569934 -0.0835657819 1
73.3881450891 36.5751847029 10.4751739789 0.2042476185 1
77.1881769896 36.5751847029 10.4552483027 -0.2124645219 1
80.98820889 36.5751847029 10.3935428814 -0.1905884322 1
84.7882407904 36.5751847029 10.3207012281 -0.2380290952 1
88.5882726908 36.5751847029 0 -0 0
92.3883045912 36.5751847029 0 -0 0
96.1883364916 36.5751847029 0 -0 0
99.988368392 36.5751847029 0 -0 0
103.7884002924 36.5751847029 10.2377520285 -0.3940983539 1
107.5884321928 36.5751847029 10.170409283 -0.2275519142 1
111.3884640932 36.5751847029 10.199203049 -0.223196515 1
115.1884959936 36.5751847029 10.020645837 -0.177604026 1
118.988527894 36.5751847029 10.2295980417 -0.0383224799 1
122.7885597944 36.5751847029 10.1617834219 -0.1070289419 1
126.5885916948 36.5751847029 10.2930745643 -0.2315235224 1
130.3886235952 36.5751847029 10.1946447439 -0.168995467 1
134.1886554956 36.5751847029 10.2251875905 -0.0381714801 1
137.988687396 36.5751847029 10.2281415232 -0.1356009271 1
141.7887192965 36.5751847029 10.3337910195 -0.1757841644 1
145.5887511969 36.5751847029 10.024804622 0.0548616719 1
149.3887830973 36.5751847029 10.128151372 -0.0938164633 1
153.1888149977 36.5751847029 10.1328480936 0.1441560071 1
156.9888468981 36.5751847029 10.0977658168 0.0069019472 1
160.7888787985 36.5751847029 10.1428423899 0.183758839 1
164.5889106989 36.5751847029 0 -0 0
-25.4126843214 32.7751528025 10.1542617465 0.3016503259 1
-21.612652421 32.7751528025 10.0333644207 0.3102494475 1
-17.8126205206 32.7751528025 10.0843111094 0.2093422873 1
-14.0125886202 32.7751528025 10.2678513133 0.3658661182 1
-10.2125567198 32.7751528025 10.203122751 0.4864457154 1
-6.4125248194 32.7751528025 0 -0 0
-2.612492919 32.7751528025 0 -0 0
1.1875389814 32.7751528025 0 -0 0
4.9875708818 32.7751528025 0 -0 0
8.7876027822 32.7751528025 0 -0 0
12.5876346827 32.7751528025 0 -0 0
16.3876665831 32.7751528025 10.4690930929 0.2568159816 1
20.1876984835 32.7751528025 10.6313203104 0.2979351028 1
23.9877303839 32.7751528025 10.6034356887 0.1486010624 1
27.7877622843 32.7751528025 10.7134232821 0.1773759535 1
31.5877941847 32.7751528025 10.4957728623 0.267505506 1
35.3878260851 32.7751528025 10.7533123844 0.3491051452 1
39.1878579855 32.7751528025 10.6548731266 -0.04029806 1
42.9878898859 32.7751528025 10.7636464303 0.0932690891 1
46.7879217863 32.7751528025 10.7029382365 0.1356874374 1
50.5879536867 32.7751528025 10.8196327358 0.1083674919 1
54.3879855871 32.7751528025 10.6613409495 0.1569878405 1
58.1880174875 32.7751528025 10.5137040834 -0.0340488722 1
61.9880493879 32.7751528025 10.5667270187 0.1499537685 1
65.7880812883 32.7751528025 10.4279708259 -0.0984125183 1
69.5881131887 32.7751528025 10.37114773 -0.2117740126 1
73.3881450891 32.7751528025 10.4921866181 -0.1328042858 1
77.1881769896 32.7751528025 10.5272877698 -0.0696690855 1
80.98820889 32.7751528025 10.560237175 -0.2600247264 1
84.7882407904 32.7751528025 10.3350430591 -0.2825236901 1
88.5882726908 32.7751528025 10.4739974391 -0.0903796459 1
92.3883045912 32.7751528025 0 -0 0
96.1883364916 32.7751528025 0 -0 0
99.988368392 32.7751528025 0 -0 0
103.7884002924 32.7751528025 10.2164673545 -0.1067489632 1
107.5884321928 32.7751528025 10.3203268745 -0.2807698909 1
111.3884640932 32.7751528025 10.2104714059 -0.0687190454 1
115.1884959936 32.7751528025 10.2493255307 -0.207498832 1
118.988527894 32.7751528025 10.2634597371 -0.1395111916 1
122.7885597944 32.7751528025 10.1942798278 -0.1171648006 1
126.5885916948 32.7751528025 10.1075084469 -0.0541947563 1
130.3886235952 32.7751528025 10.2370945504 0.0328487387 1
134.1886554956 32.7751528025 10.1202773638 -0.0545093392 1
137.988687396 32.7751528025 9.9484522243 -0.2201623636 1
141.7887192965 32.7751528025 10.1474856325 -0.0794431739 1
145.5887511969 32.7751528025 10.1351571315 -0.0543992352 1
149.3887830973 32.7751528025 10.1116640861 0.0279192258 1
153.1888149977 32.7751528025 10.0553128645 -0.0917119042 1
156.9888468981 32.7751528025 10.1424806197 0.0399331439 1
160.7888787985 32.7751528025 10.2083825759 0.1170830091 1
164.5889106989 32.7751528025 0 -0 0
-25.4126843214 28.9751209021 10.0557501346 0.302199273 1
-21.612652421 28.9751209021 10.1966612198 0.4235291502 1
-17.8126205206 28.9751209021 10.2675115639 0.1593204722 1
-14.0125886202 28.9751209021 10.2237656761 0.3452640889 1
-10.2125567198 28.9751209021 10.1721048844 0.4180459715 1
-6.4125248194 28.9751209021 0 -0 0
-2.612492919 28.9751209021 0 -0 0
1.1875389814 28.9751209021 0 -0 0
4.9875708818 28.9751209021 0 -0 0
8.7876027822 28.9751209021 0 -0 0
12.5876346827 28.9751209021 0 -0 0
16.3876665831 28.9751209021 10.4863511067 0.2976409678 1
20.1876984835 28.9751209021 10.4769608094 0.2962111889 1
23.9877303839 28.9751209021 10.6241446761 0.2987656014 1
27.7877622843 28.9751209021 10.7256385332 0.5124837359 1
31.5877941847 28.9751209021 10.6223389707 0.2584628227 1
35.3878260851 28.9751209021 10.7444474404 0.0279255175 1
39.1878579855 28.9751209021 10.7207687911 0.0535939031 1
42.9878898859 28.9751209021 10.7415815909 -0.0914838316 1
46.7879217863 28.9751209021 10.6773909652 0.0268323421 1
50.5879536867 28.9751209021 10.7202560211 -0.1113198517 1
54.3879855871 28.9751209021 10.7767519508 -0.1660792842 1
58.1880174875 28.9751209021 10.6163178554 -0.1431603524 1
61.9880493879 28.9751209021 10.6185073519 0.0050522002 1
65.7880812883 28.9751209021 10.7191990228 -0.1113969245 1
69.5881131887 28.9751209021 10.5217196538 -0.1465263887 1
73.3881450891 28.9751209021 10.5285429553 -0.2117142418 1
77.1881769896 28.9751209021 10.5379961692 -0.140841877 1
80.98820889 28.9751209021 10.4513506215 -0.0109789406 1
84.7882407904 28.9751209021 10.4798518255 -0.3707720374 1
88.5882726908 28.9751209021 10.4039713021 -0.3429456135 1
92.3883045912 28.9751209021 0 -0 0
96.1883364916 28.9751209021 0 -0 0
99.988368392 28.9751209021 0 -0 0
103.7884002924 28.9751209021 10.337864867 -0.1368655501 1
107.5884321928 28.9751209021 10.30608571 -0.4504102527 1
111.3884640932 28.9751209021 10.1935657248 -0.3491995201 1
115.1884959936 28.9751209021 10.1606666529 -0.1799004807 1
118.988527894 28.9751209021 10.1899668973 -0.1432909043 1
122.7885597944 28.9751209021 10.1659107486 -0.1478460636 1
126.5885916948 28.9751209021 10.2424267293 -0.2704106784 1
130.3886235952 28.9751209021 10.139378833 -0.1152757307 1
134.1886554956 28.9751209021 10.2281037733 -0.0704461051 1
137.988687396 28.9751209021 10.0736970848 -0.0556732956 1
141.7887192965 28.9751209021 10.0540545332 -0.2230266403 1
145.5887511969 28.9751209021 10.0415435742 -0.1112537893 1
149.3887830973 28.9751209021 10.199404382 -0.0336068833 1
153.1888149977 28.9751209021 10.1713341565 -0.0492793997 1
156.9888468981 28.9751209021 10.2522668801 0.0146862992 1
160.7888787985 28.9751209021 10.0302783632 -0.0733827358 1
164.5889106989 28.9751209021 0 -0 0
-25.4126843214 25.1750890017 10.1032364122 0.3034638959 1
-21.612652421 25.1750890017 10.085654378 0.3158741884 1
-17.8126205206 25.1750890017 10.2709184959 0.3971781198 1
-14.0125886202 25.1750890017 10.2918067955 0.6236871919 1
-10.2125567198 25.1750890017 10.1613084018 0.4365843375 1
-6.4125248194 25.1750890017 10.3463082701 0.4833046059 1
-2.612492919 25.1750890017 0 -0 0
1.1875389814 25.1750890017 0 -0 0
4.9875708818 25.1750890017 0 -0 0
8.7876027822 25.1750890017 0 -0 0
12.5876346827 25.1750890017 0 -0 0
16.3876665831 25.1750890017 10.5298327449 0.4523528016 1
20.1876984835 25.1750890017 10.6887474053 0.3059994335 1
23.9877303839 25.1750890017 10.7927736541 0.4816090044 1
27.7877622843 25.1750890017 10.7097867047 0.5909863072 1
31.5877941847 25.1750890017 10.6926671073 0.4595221442 1
35.3878260851 25.1750890017 10.8126584346 0.1250089234 1
39.1878579855 25.1750890017 10.7454100639 0.2221206417 1
42.9878898859 25.1750890017 10.7934657363 0.2518424271 1
46.7879217863 25.1750890017 10.7353402676 -0.1356858645 1
50.5879536867 25.1750890017 10.7855256658 0.0776988122 1
54.3879855871 25.1750890017 10.7011419686 0.0721951856 1
58.1880174875 25.1750890017 10.8446577996 0.091897508 1
61.9880493879 25.1750890017 10.564506064 -0.1386413701 1
65.7880812883 25.1750890017 10.7183873991 -0.0851135294 1
69.5881131887 25.1750890017 10.5669157684 -0.419722698 1
73.3881450891 25.1750890017 10.4790213269 -0.0800691938 1
77.1881769896 25.1750890017 10.4017943889 -0.2548938805 1
80.98820889 25.1750890017 10.5124017105 -0.1404171902 1
84.7882407904 25.1750890017 10.5769918563 -0.2743004951 1
88.5882726908 25.1750890017 10.2036072086 -0.4144959043 1
92.3883045912 25.1750890017 0 -0 0
96.1883364916 25.1750890017 0 -0 0
99.988368392 25.1750890017 0 -0 0
103.7884002924 25.1750890017 10.289947611 -0.2833070014 1
107.5884321928 25.1750890017 10.2993473458 -0.2732922571 1
111.3884640932 25.1750890017 10.2300856451 -0.2988804242 1
115.1884959936 25.1750890017 10.1027959962 -0.24438996 1
118.988527894 25.1750890017 10.2223815117 -0.3065483805 1
122.7885597944 25.1750890017 10.1255277512 -0.2288102455 1
126.5885916948 25.1750890017 10.089463976 -0.201032582 1
130.3886235952 25.1750890017 10.2655642962 -0.153609221 1
134.1886554956 25.1750890017 10.2375727163 -0.2276085391 1
137.988687396 25.1750890017 10.1113872532 0.0127752086 1
141.7887192965 25.1750890017 10.0153514081 -0.1742600106 1
145.5887511969 25.1750890017 10.2006123801 -0.2080131749 1
149.3887830973 25.1750890017 10.1438427633 0.0243502836 1
153.1888149977 25.1750890017 10.1467809669 -0.0944519206 1
156.9888468981 25.1750890017 10.2431313949 0.0397585505 1
160.7888787985 25.1750890017 10.1086598201 -0.023977503 1
164.5889106989 25.1750890017 0 -0 0
-25.4126843214 21.3750571012 10.1742346101 0.4044150977 1
-21.612652421 21.3750571012 10.253588128 0.4288109958 1
-17.8126205206 21.3750571012 10.1364186086 0.3497028526 1
-14.0125886202 21.3750571012 10.1259272714 0.4567286487 1
-10.2125567198 21.3750571012 10.1574390331 0.503708448 1
-6.4125248194 21.3750571012 10.2823850399 0.5422196775 1
-2.612492919 21.3750571012 0 -0 0
1.1875389814 21.3750571012 0 -0 0
4.9875708818 21.3750571012 0 -0 0
8.7876027822 21.3750571012 0 -0 0
12.5876346827 21.3750571012 0 -0 0
16.3876665831 21.3750571012 10.4150792217 0.4538517888 1
20.1876984835 21.3750571012 10.8254651014 0.4790026857 1
23.9877303839 21.3750571012 10.7172737759 0.4458944162 1
27.7877622843 21.3750571012 10.7348463726 0.1583971716 1
31.5877941847 21.3750571012 10.7037246936 0.2588104367 1
35.3878260851 21.3750571012 10.7788690932 0.2274905706 1
39.1878579855 21.3750571012 10.8159647001 0.0442350641 1
42.9878898859 21.3750571012 10.8020475558 0.1537130333 1
46.7879217863 21.3750571012 10.7457435217 -0.287343099 1
50.5879536867 21.3750571012 10.7914429688 -0.012326928 1
54.3879855871 21.3750571012 10.8098963973 -0.1148038565 1
58.1880174875 21.3750571012 10.7817569636 -0.1677418544 1
61.9880493879 21.3750571012 10.6786430049 -0.2511330428 1
65.7880812883 21.3750571012 10.664316903 -0.2443144601 1
69.5881131887 21.3750571012 10.5705334709 0.0032386302 1
73.3881450891 21.3750571012 10.5376690031 0.0248661995 1
77.1881769896 21.3750571012 10.5155538304 -0.2665082785 1
80.98820889 21.3750571012 10.7105196826 -0.5243592376 1
84.7882407904 21.3750571012 10.432988422 -0.4327354166 1
88.5882726908 21.3750571012 10.4128425378 -0.1771667559 1
92.3883045912 21.3750571012 0 -0 0
96.1883364916 21.3750571012 0 -0 0
99.988368392 21.3750571012 0 -0 0
103.7884002924 21.3750571012 10.1700286378 -0.2605689547 1
107.5884321928 21.3750571012 10.1409423097 -0.391587983 1
111.3884640932 21.3750571012 10.287072324 -0.3224568341 1
115.1884959936 21.3750571012 10.1894415439 -0.3264268693 1
118.988527894 21.3750571012 10.1746184012 -0.1595689926 1
122.7885597944 21.3750571012 10.1372805656 -0.2604258195 1
126.5885916948 21.3750571012 10.2718590985 -0.1275696276 1
130.3886235952 21.3750571012 10.0658010559 -0.2587349368 1
134.1886554956 21.3750571012 10.2184838304 -0.18185404 1
137.988687396 21.3750571012 10.1707553241 -0.1316953813 1
141.7887192965 21.3750571012 9.9640586783 -0.1237254254 1
145.5887511969 21.3750571012 10.1650613749 -0.0620671916 1
149.3887830973 21.3750571012 9.8170037905 -0.0619382126 1
153.1888149977 21.3750571012 10.2375884455 -0.3127079123 1
156.9888468981 21.3750571012 10.2451510166 0.1270065243 1
160.7888787985 21.3750571012 9.9861486844 -0.001923674 1
164.5889106989 21.3750571012 0 -0 0
-25.4126843214 17.5750252008 10.0204350666 0.3822779042 1
-21.612652421 17.5750252008 10.1807118705 0.4910795204 1
-17.8126205206 17.5750252008 9.936680535 0.325937693 1
-14.0125886202 17.5750252008 10.1895264813 0.3693296751 1
-10.2125567198 17.5750252008 10.1216049034 0.5595170142 1
-6.4125248194 17.5750252008 10.0833044443 0.459893352 1
-2.612492919 17.5750252008 0 -0 0
1.1875389814 17.5750252008 0 -0 0
4.9875708818 17.5750252008 0 -0 0
8.7876027822 17.5750252008 0 -0 0
12.5876346827 17.5750252008 0 -0 0
16.3876665831 17.5750252008 10.5779765006 0.4604312886 1
20.1876984835 17.5750252008 10.6326163916 0.4909536873 1
23.9877303839 17.5750252008 10.7980649373 0.2449341883 1
27.7877622843 17.5750252008 10.9257100647 0.5130075163 1
31.5877941847 17.5750252008 10.9055327223 0.2699199292 1
35.3878260851 17.5750252008 10.8739517524 0.2911416866 1
39.1878579855 17.5750252008 10.8027050339 0.169380831 1
42.9878898859 17.5750252008 10.7914052188 0.0365875556 1
46.7879217863 17.5750252008 10.8121519562 0.0628505028 1
50.5879536867 17.5750252008 10.7669369666 -0.2090953398 1
54.3879855871 17.5750252008 10.8145994106 -0.1994832616 1
58.1880174875 17.5750252008 10.9018521032 -0.2095845161 1
61.9880493879 17.5750252008 10.7236692448 -0.0603385589 1
65.7880812883 17.5750252008 10.6884831557 -0.3087347312 1
69.5881131887 17.5750252008 10.7103592454 0.0105589726 1
73.3881450891 17.5750252008 10.6310906649 -0.4503410444 1
77.1881769896 17.5750252008 10.4623987703 -0.3601485753 1
80.98820889 17.5750252008 10.6009127344 -0.2985406747 1
84.7882407904 17.5750252008 10.3492213071 -0.3792170133 1
88.5882726908 17.5750252008 10.3924575707 -0.3556044264 1
92.3883045912 17.5750252008 10.2960190595 -0.4661614148 1
96.1883364916 17.5750252008 0 -0 0
99.988368392 17.5750252008 0 -0 0
103.7884002924 17.5750252008 10.3060825641 -0.3110878107 1
107.5884321928 17.5750252008 10.2570391016 -0.2499407739 1
111.3884640932 17.5750252008 10.227981086 -0.3157043137 1
115.1884959936 17.5750252008 10.0693841543 -0.284796551 1
118.988527894 17.5750252008 10.0996155638 -0.2274229353 1
122.7885597944 17.5750252008 10.2567591229 -0.1890485492 1
126.5885916948 17.5750252008 10.1958527419 -0.0629401589 1
130.3886235952 17.5750252008 10.1200665933 -0.1510941313 1
134.1886554956 17.5750252008 10.0481938551 -0.2756516283 1
137.988687396 17.5750252008 10.1277612893 -0.0169277019 1
141.7887192965 17.5750252008 10.0791425135 -0.1245952469 1
145.5887511969 17.5750252008 10.0607173974 -0.2057859285 1
149.3887830973 17.5750252008 10.1548657456 -0.2088924339 1
153.1888149977 17.5750252008 10.1680813701 -0.1589005041 1
156.9888468981 17.5750252008 10.303685443 -0.1639070898 1
160.7888787985 17.5750252008 9.9936326098 -0.2145737997 1
164.5889106989 17.5750252008 0 -0 0
-25.4126843214 13.7749933004 9.946039374 0.5459191715 1
-21.612652421 13.7749933004 10.0008617231 0.3589956293 1
-17.8126205206 13.7749933004 10.0405809507 0.4585485104 1
-14.0125886202 13.7749933004 10.1066213234 0.4975976766 1
-10.2125567198 13.7749933004 10.0998452093 0.5019279092 1
-6.4125248194 13.7749933004 10.2220889496 0.6267701036 1
-2.612492919 13.7749933004 0 -0 0
1.1875389814 13.7749933004 0 -0 0
4.9875708818 13.7749933004 0 -0 0
8.7876027822 13.7749933004 0 -0 0
12.5876346827 13.7749933004 0 -0 0
16.3876665831 13.7749933004 10.6508496122 0.4306560241 1
20.1876984835 13.7749933004 10.7105605784 0.5757054464 1
23.9877303839 13.7749933004 10.947208655 0.3742513234 1
27.7877622843 13.7749933004 11.0289750231 0.1367853315 1
31.5877941847 13.7749933004 11.0242845932 0.3500095709 1
35.3878260851 13.7749933004 10.9179996396 0.1515612868 1
39.1878579855 13.7749933004 10.8654800369 0.0577165111 1
42.9878898859 13.7749933004 10.9393912718 -0.0961789803 1
46.7879217863 13.7749933004 11.1095019349 -0.0260726246 1
50.5879536867 13.7749933004 10.8364283129 -0.142307833 1
54.3879855871 13.7749933004 10.8743449809 -0.1752210611 1
58.1880174875 13.7749933004 10.7360952664 -0.2394242701 1
61.9880493879 13.7749933004 10.6180417693 -0.1447647248 1
65.7880812883 13.7749933004 10.6284072734 -0.0911314988 1
69.5881131887 13.7749933004 10.7255347209 -0.3823282375 1
73.3881450891 13.7749933004 10.7633727432 -0.2977620822 1
77.1881769896 13.7749933004 10.4786784316 -0.4130472504 1
80.98820889 13.7749933004 10.4974810471 -0.4164132867 1
84.7882407904 13.7749933004 10.5748935889 -0.2229070988 1
88.5882726908 13.7749933004 10.4789363895 -0.5792083262 1
92.3883045912 13.7749933004 10.2748035938 -0.5748246145 1
96.1883364916 13.7749933004 0 -0 0
99.988368392 13.7749933004 0 -0 0
103.7884002924 13.7749933004 10.3988719145 -0.3718762231 1
107.5884321928 13.7749933004 10.1146463313 -0.3076352642 1
111.3884640932 13.7749933004 10.0556305931 -0.3856989925 1
115.1884959936 13.7749933004 10.1693711597 -0.292453497 1
118.988527894 13.7749933004 10.2361602394 -0.2105691604 1
122.7885597944 13.7749933004 10.0383442668 -0.2085699865 1
126.5885916948 13.7749933004 10.1985424251 -0.28184891 1
130.3886235952 13.7749933004 10.1393568122 -0.3035331042 1
134.1886554956 13.7749933004 10.083493194 -0.2599020391 1
137.988687396 13.7749933004 10.1396871242 -0.1523052752 1
141.7887192965 13.7749933004 10.0397756187 -0.0438764396 1
145.5887511969 13.7749933004 10.1675654542 0.0487493276 1
149.3887830973 13.7749933004 10.1778680418 -0.1608823759 1
153.1888149977 13.7749933004 10.1448274076 -0.1148557627 1
156.9888468981 13.7749933004 10.0549856983 -0.1184844756 1
160.7888787985 13.7749933004 10.1073134056 0.0248394599 1
164.5889106989 13.7749933004 0 -0 0
-25.4126843214 9.9749614 9.8015577738 0.3781914733 1
-21.612652421 9.9749614 10.0276421591 0.3975886504 1
-17.8126205206 9.9749614 9.8711246199 0.5181273518 1
-14.0125886202 9.9749614 10.0220457306 0.6241449099 1
-10.2125567198 9.9749614 10.0256256832 0.5690960612 1
-6.4125248194 9.9749614 10.2755491551 0.7174423115 1
-2.612492919 9.9749614 0 -0 0
1.1875389814 9.9749614 0 -0 0
4.9875708818 9.9749614 0 -0 0
8.7876027822 9.9749614 0 -0 0
12.5876346827 9.9749614 10.6004471518 0.6362940987 1
16.3876665831 9.9749614 10.7288504239 0.6783286559 1
20.1876984835 9.9749614 10.8829362379 0.5445963508 1
23.9877303839 9.9749614 10.9698649102 0.4685255047 1
27.7877622843 9.9749614 11.0567872908 0.3340035967 1
31.5877941847 9.9749614 11.1298806104 0.1626597689 1
35.3878260851 9.9749614 11.0259298614 0.2056868349 1
39.1878579855 9.9749614 11.138185597 0.1610113549 1
42.9878898859 9.9749614 11.0526316517 -0.2858991639 1
46.7879217863 9.9749614 11.0808591686 -0.0621568477 1
50.5879536867 9.9749614 10.822432523 -0.1076754097 1
54.3879855871 9.9749614 10.851024956 -0.3616680104 1
58.1880174875 9.9749614 10.8939906784 -0.338064861 1
61.9880493879 9.9749614 10.8003991418 -0.431903345 1
65.7880812883 9.9749614 10.8390393503 -0.2113225862 1
69.5881131887 9.9749614 10.6984711604 -0.2425150463 1
73.3881450891 9.9749614 10.6151853572 -0.503598344 1
77.1881769896 9.9749614 10.5984243843 -0.4871582455 1
80.98820889 9.9749614 10.6110360098 -0.4122466371 1
84.7882407904 9.9749614 10.3807928395 -0.1833766209 1
88.5882726908 9.9749614 10.3902271784 -0.4845393435 1
92.3883045912 9.9749614 10.3822776704 -0.6569275862 1
96.1883364916 9.9749614 0 -0 0
99.988368392 9.9749614 0 -0 0
103.7884002924 9.9749614 10.1425466821 -0.3839090162 1
107.5884321928 9.9749614 10.0987221486 -0.3744888335 1
111.3884640932 9.9749614 10.1896743352 -0.4132108335 1
115.1884959936 9.9749614 10.2325016412 -0.2849223842 1
118.988527894 9.9749614 10.114504769 -0.3627486024 1
122.7885597944 9.9749614 9.9384516363 -0.2321574068 1
126.5885916948 9.9749614 10.0289350945 -0.3534904298 1
130.3886235952 9.9749614 10.1306743262 -0.2177888362 1
134.1886554956 9.9749614 10.0466775659 -0.1605064494 1
137.988687396 9.9749614 10.1473000286 -0.194932821 1
141.7887192965 9.9749614 10.0750246243 -0.2325443437 1
145.5887511969 9.9749614 10.0904265995 -0.0178478566 1
149.3887830973 9.9749614 10.193562579 0.0750122748 1
153.1888149977 9.9749614 10.057794923 -0.2753197434 1
156.9888468981 9.9749614 10.1901587928 -0.130326946 1
160.7888787985 9.9749614 10.2554410208 -0.0842987599 1
164.5889106989 9.9749614 0 -0 0
-25.4126843214 6.1749294996 10.008905606 0.5142265247 1
-21.612652421 6.1749294996 9.6865085427 0.4130142192 1
-17.8126205206 6.1749294996 9.8698285386 0.4152965176 1
-14.0125886202 6.1749294996 9.9443091685 0.5724762537 1
-10.2125567198 6.1749294996 10.0820870088 0.6316870332 1
-6.4125248194 6.1749294996 10.1078702172 0.7354521783 1
-2.612492919 6.1749294996 10.2409953775 0.8290861835 1
1.1875389814 6.1749294996 0 -0 0
4.9875708818 6.1749294996 0 -0 0
8.7876027822 6.1749294996 0 -0 0
12.5876346827 6.1749294996 10.668419063 1.0687652657 1
16.3876665831 6.1749294996 11.0206322866 0.6602322788 1
20.1876984835 6.1749294996 11.1454839186 0.642827984 1
23.9877303839 6.1749294996 11.0233345531 0.6613364645 1
27.7877622843 6.1749294996 10.9822909318 0.5130830162 1
31.5877941847 6.1749294996 11.1347220401 0.1967448181 1
35.3878260851 6.1749294996 11.1401297189 0.0822052112 1
39.1878579855 6.1749294996 11.1179642129 0.0527822794 1
42.9878898859 6.1749294996 11.0964844976 -0.0806197137 1
46.7879217863 6.1749294996 11.1358073508 0.1450132453 1
50.5879536867 6.1749294996 10.9631013794 -0.2083655077 1
54.3879855871 6.1749294996 10.9649353973 -0.3170743219 1
58.1880174875 6.1749294996 10.9432700781 -0.3384816832 1
61.9880493879 6.1749294996 10.8516604133 -0.2352827872 1
65.7880812883 6.1749294996 10.955287142 -0.4940554739 1
69.5881131887 6.1749294996 10.7930850911 -0.6177856181 1
73.3881450891 6.1749294996 10.6625458017 -0.3785563894 1
77.1881769896 6.1749294996 10.7201647921 -0.537027488 1
80.98820889 6.1749294996 10.3495484732 -0.2181270128 1
84.7882407904 6.1749294996 10.2835773088 -0.4040643378 1
88.5882726908 6.1749294996 10.394942775 -0.4950857327 1
92.3883045912 6.1749294996 10.6069715997 -0.488157046 1
96.1883364916 6.1749294996 0 -0 0
99.988368392 6.1749294996 0 -0 0
103.7884002924 6.1749294996 10.3251242626 -0.4913359054 1
107.5884321928 6.1749294996 10.1720734261 -0.4709839695 1
111.3884640932 6.1749294996 10.0248518094 -0.4426778068 1
115.1884959936 6.1749294996 10.2158633555 -0.439725447 1
118.988527894 6.1749294996 10.0835561106 -0.3074874103 1
122.7885597944 6.1749294996 10.0552436562 -0.291336728 1
126.5885916948 6.1749294996 10.0433115297 -0.2335793212 1
130.3886235952 6.1749294996 10.0070841714 -0.2676392037 1
134.1886554956 6.1749294996 9.9099126823 -0.2166594839 1
137.988687396 6.1749294996 9.9886401803 -0.1270049514 1
141.7887192965 6.1749294996 10.0286582616 -0.1704299647 1
145.5887511969 6.1749294996 10.1125040222 0.0446440217 1
149.3887830973 6.1749294996 10.0839902349 -0.1006885251 1
153.1888149977 6.1749294996 10.052830806 -0.0254906464 1
156.9888468981 6.1749294996 10.0665245964 -0.2002901665 1
160.7888787985 6.1749294996 10.2564036443 -0.0788171541 1
164.5889106989 6.1749294996 0 -0 0
-25.4126843214 2.3748975992 9.8495379464 0.4996471837 1
-21.612652421 2.3748975992 9.8557383739 0.3699210908 1
-17.8126205206 2.3748975992 9.8406037941 0.4227647139 1
-14.0125886202 2.3748975992 9.6522347438 0.6087602368 1
-10.2125567198 2.3748975992 9.7160101201 0.6839817093 1
-6.4125248194 2.3748975992 9.9531646751 0.8583329489 1
-2.612492919 2.3748975992 10.1758075243 0.9832506432 1
1.1875389814 2.3748975992 0 -0 0
4.9875708818 2.3748975992 0 -0 0
8.7876027822 2.3748975992 0 -0 0
12.5876346827 2.3748975992 10.7895649093 1.075536661 1
16.3876665831 2.3748975992 11.0970004134 0.8919870196 1
20.1876984835 2.3748975992 11.4443501865 0.7941517607 1
23.9877303839 2.3748975992 11.3450584091 0.5812719895 1
27.7877622843 2.3748975992 11.3454988251 0.3371620083 1
31.5877941847 2.3748975992 11.3213262808 0.1995697719 1
35.3878260851 2.3748975992 11.2034741167 0.0748140877 1
39.1878579855 2.3748975992 11.2369111253 0.1689813108 1
42.9878898859 2.3748975992 11.1852283128 -0.1626928001 1
46.7879217863 2.3748975992 11.2543893471 -0.1933882193 1
50.5879536867 2.3748975992 11.2065444451 -0.1213220126 1
54.3879855871 2.3748975992 10.9953303899 -0.4029019543 1
58.1880174875 2.3748975992 11.0679486894 -0.1205229723 1
61.9880493879 2.3748975992 10.9548970593 -0.3854976595 1
65.7880812883 2.3748975992 10.7565242751 -0.2834988969 1
69.5881131887 2.3748975992 10.7467942283 -0.7530924103 1
73.3881450891 2.3748975992 10.8199599019 -0.3837643081 1
77.1881769896 2.3748975992 10.5070915524 -0.4604957781 1
80.98820889 2.3748975992 10.4580701107 -0.4348730069 1
84.7882407904 2.3748975992 10.6745785948 -0.7691345615 1
88.5882726908 2.3748975992 10.5435296812 -0.6929457469 1
92.3883045912 2.3748975992 10.4922400972 -0.5191544647 1
96.1883364916 2.3748975992 0 -0 0
99.988368392 2.3748975992 0 -0 0
103.7884002924 2.3748975992 10.2870251366 -0.6644571262 1
107.5884321928 2.3748975992 10.1659799568 -0.5659109101 1
111.3884640932 2.3748975992 10.0416725531 -0.4675628813 1
115.1884959936 2.3748975992 9.9786647589 -0.5378815803 1
118.988527894 2.3748975992 10.1465544673 -0.4823718678 1
122.7885597944 2.3748975992 10.03484296 -0.2844741037 1
126.5885916948 2.3748975992 9.9393953848 -0.3015040449 1
130.3886235952 2.3748975992 9.9880990979 -0.2210227477 1
134.1886554956 2.3748975992 9.962470035 -0.2018583619 1
137.988687396 2.3748975992 10.3044310043 -0.2667096115 1
141.7887192965 2.3748975992 10.038853891 -0.3119513406 1
145.5887511969 2.3748975992 10.1004995416 -0.095505773 1
149.3887830973 2.3748975992 9.9708505215 -0.1462023683 1
153.1888149977 2.3748975992 10.0967308393 0.2730846324 1
156.9888468981 2.3748975992 10.0538091586 0.1044588003 1
160.7888787985 2.3748975992 10.0627873524 -0.1406814398 1
164.5889106989 2.3748975992 0 -0 0
-25.4126843214 -1.4251343012 9.812451777 0.3323252973 1
-21.612652421 -1.4251343012 9.8866775948 0.3646172244 1
-17.8126205206 -1.4251343012 9.6897959332 0.5164506253 1
-14.0125886202 -1.4251343012 9.6651609521 0.6364466714 1
-10.2125567198 -1.4251343012 9.6623202692 0.6153979345 1
-6.4125248194 -1.4251343012 9.790855666 0.8019455502 1
-2.612492919 -1.4251343012 9.8266992332 1.0346959457 1
1.1875389814 -1.4251343012 0 -0 0
4.9875708818 -1.4251343012 0 -0 0
8.7876027822 -1.4251343012 0 -0 0
12.5876346827 -1.4251343012 10.8611639605 1.3278430978 1
16.3876665831 -1.4251343012 0 -0 0
20.1876984835 -1.4251343012 0 -0 0
23.9877303839 -1.4251343012 11.5673646547 0.7460489008 1
27.7877622843 -1.4251343012 11.5056151918 0.5937750839 1
31.5877941847 -1.4251343012 11.3564211408 0.3492970408 1
35.3878260851 -1.4251343012 11.4566755416 0.2017419663 1
39.1878579855 -1.4251343012 11.4462754334 -0.028501204 1
42.9878898859 -1.4251343012 11.4046561255 -0.1764636633 1
46.7879217863 -1.4251343012 11.174161289 -0.132507005 1
50.5879536867 -1.4251343012 11.2968391536 -0.3382882148 1
54.3879855871 -1.4251343012 11.2661012657 -0.2657391235 1
58.1880174875 -1.4251343012 10.9476176127 -0.207259749 1
61.9880493879 -1.4251343012 10.9667159361 -0.4938730159 1
65.7880812883 -1.4251343012 10.993222685 -0.5397895252 1
69.5881131887 -1.4251343012 10.8437643844 -0.5537884609 1
73.3881450891 -1.4251343012 10.9484292364 -0.5523681195 1
77.1881769896 -1.4251343012 10.7804105491 -0.5749756143 1
80.98820889 -1.4251343012 10.4930391376 -0.66207888 1
84.7882407904 -1.4251343012 10.6090981796 -0.6111636496 1
88.5882726908 -1.4251343012 10.4314910077 -0.4594922589 1
92.3883045912 -1.4251343012 10.5300655362 -0.8567112744 1
96.1883364916 -1.4251343012 10.261298553 -0.7678274699 1
99.988368392 -1.4251343012 0 -0 0
103.7884002924 -1.4251343012 10.1136837078 -0.6194780737 1
107.5884321928 -1.4251343012 9.8960395797 -0.6395893538 1
111.3884640932 -1.4251343012 9.705386658 -0.5503846747 1
115.1884959936 -1.4251343012 9.9728040809 -0.535377501 1
118.988527894 -1.4251343012 9.9959196269 -0.541239752 1
122.7885597944 -1.4251343012 9.7954265545 -0.406315178 1