TITLE = "B00002"
VARIABLES = "x", "y", "Vx", "Vy", "isValid"
ZONE T="Frame 0", I=51, J=39, F=POINT
-25.4126843214 36.5751847029 0.1311336298 0.0684687124 1
-21.612652421 36.5751847029 0.1851510155 0.0721004053 1
-17.8126205206 36.5751847029 0.115904454 0.0692078838 1
-14.0125886202 36.5751847029 0.1255164831 0.0824139971 1
-10.2125567198 36.5751847029 0.0770464645 0.0824817491 1
-6.4125248194 36.5751847029 0 -0 0
-2.612492919 36.5751847029 0 -0 0
1.1875389814 36.5751847029 0 -0 0
4.9875708818 36.5751847029 0 -0 0
8.7876027822 36.5751847029 0 -0 0
12.5876346827 36.5751847029 0 -0 0
16.3876665831 36.5751847029 0.0876660372 0.0853670512 1
20.1876984835 36.5751847029 0.0861322923 0.073968419 1
23.9877303839 36.5751847029 0.0785428096 0.1336722272 1
27.7877622843 36.5751847029 0.0694173271 0.135004977 1
31.5877941847 36.5751847029 0.0903541721 0.127450381 1
35.3878260851 36.5751847029 0.0861420002 0.0961890752 1
39.1878579855 36.5751847029 0.0671005413 0.1426149444 1
42.9878898859 36.5751847029 0.087009788 0.1210784076 1
46.7879217863 36.5751847029 0.0856553922 0.1015979275 1
50.5879536867 36.5751847029 0.0654079198 0.1193764162 1
54.3879855871 36.5751847029 0.0810502498 0.1030027364 1
58.1880174875 36.5751847029 0.0892585329 0.1103036509 1
61.9880493879 36.5751847029 0.0748582644 0.1276828651 1
65.7880812883 36.5751847029 0.0706821528 0.1175847318 1
69.5881131887 36.5751847029 0.0889122092 0.0956137573 1
73.3881450891 36.5751847029 0.065269399 0.1349945073 1
77.1881769896 36.5751847029 0.0761278273 0.1253695385 1
80.98820889 36.5751847029 0.0530570233 0.1092823258 1
84.7882407904 36.5751847029 0.0760600446 0.1064735435 1
88.5882726908 36.5751847029 0 -0 0
92.3883045912 36.5751847029 0 -0 0
96.1883364916 36.5751847029 0 -0 0
99.988368392 36.5751847029 0 -0 0
103.7884002924 36.5751847029 0.0686672007 0.0783363155 1
107.5884321928 36.5751847029 0.0559664966 0.0799057766 1
111.3884640932 36.5751847029 0.0882866379 0.0803845016 1
115.1884959936 36.5751847029 0.086311666 0.082879168 1
118.988527894 36.5751847029 0.0812165179 0.0512153713 1
122.7885597944 36.5751847029 0.1054679721 0.075366242 1
126.5885916948 36.5751847029 0.0836786815 0.1136707931 1
130.3886235952 36.5751847029 0.0563945812 0.0697777948 1
134.1886554956 36.5751847029 0.0979564163 0.0742368282 1
137.988687396 36.5751847029 0.0704519667 0.0965629741 1
141.7887192965 36.5751847029 0.0960707564 0.0934973276 1
145.5887511969 36.5751847029 0.1032180536 0.0966318259 1
149.3887830973 36.5751847029 0.1306026853 0.1171563216 1
153.1888149977 36.5751847029 0.1166035037 0.1272909883 1
156.9888468981 36.5751847029 0.1461806056 0.1397992561 1
160.7888787985 36.5751847029 0.1125369186 0.1340483134 1
164.5889106989 36.5751847029 0 -0 0
-25.4126843214 32.7751528025 0.0794769855 0.0763585112 1
-21.612652421 32.7751528025 0.1126231708 0.1088859023 1
-17.8126205206 32.7751528025 0.121098708 0.0770174147 1
-14.0125886202 32.7751528025 0.1151544935 0.0823040283 1
-10.2125567198 32.7751528025 0.0833802026 0.0655654693 1
-6.4125248194 32.7751528025 0 -0 0
-2.612492919 32.7751528025 0 -0 0
1.1875389814 32.7751528025 0 -0 0
4.9875708818 32.7751528025 0 -0 0
8.7876027822 32.7751528025 0 -0 0
12.5876346827 32.7751528025 0 -0 0
16.3876665831 32.7751528025 0.076278612 0.1128773439 1
20.1876984835 32.7751528025 0.0765324533 0.1017085292 1
23.9877303839 32.7751528025 0.0696578048 0.117147818 1
27.7877622843 32.7751528025 0.0992733693 0.1116097963 1
31.5877941847 32.7751528025 0.0935832603 0.1292862053 1
35.3878260851 32.7751528025 0.0865554493 0.1173172504 1
39.1878579855 32.7751528025 0.0860791266 0.1464763503 1
42.9878898859 32.7751528025 0.0946382617 0.1404041768 1
46.7879217863 32.7751528025 0.0819754735 0.1077324032 1
50.5879536867 32.7751528025 0.1021600784 0.1295605068 1
54.3879855871 32.7751528025 0.08386031 0.1515198872 1
58.1880174875 32.7751528025 0.0897560223 0.0970040721 1
61.9880493879 32.7751528025 0.0720286165 0.1286313569 1
65.7880812883 32.7751528025 0.0942495676 0.1025647597 1
69.5881131887 32.7751528025 0.0775986679 0.1111223527 1
73.3881450891 32.7751528025 0.1022909375 0.1108372988 1
77.1881769896 32.7751528025 0.0673659767 0.1218700995 1
80.98820889 32.7751528025 0.0979955794 0.1435433816 1
84.7882407904 32.7751528025 0.06716508 0.096463604 1
88.5882726908 32.7751528025 0.083144671 0.0995833502 1
92.3883045912 32.7751528025 0 -0 0
96.1883364916 32.7751528025 0 -0 0
99.988368392 32.7751528025 0 -0 0
103.7884002924 32.7751528025 0.08439268 0.0899691092 1
107.5884321928 32.7751528025 0.0728952369 0.0678438231 1
111.3884640932 32.7751528025 0.0688230482 0.0992612653 1
115.1884959936 32.7751528025 0.1003530213 0.0955936965 1
118.988527894 32.7751528025 0.0842327528 0.0669920226 1
122.7885597944 32.7751528025 0.0824181137 0.1022903415 1
126.5885916948 32.7751528025 0.0701883131 0.0644895776 1
130.3886235952 32.7751528025 0.0659274239 0.0770578804 1
134.1886554956 32.7751528025 0.075713389 0.0860895349 1
137.988687396 32.7751528025 0.0818256903 0.0918484159 1
141.7887192965 32.7751528025 0.0793303727 0.0852081807 1
145.5887511969 32.7751528025 0.0693760197 0.0842012699 1
149.3887830973 32.7751528025 0.0887532465 0.0839921829 1
153.1888149977 32.7751528025 0.1315303237 0.1098964873 1
156.9888468981 32.7751528025 0.1028394299 0.1167110149 1
160.7888787985 32.7751528025 0.1108625515 0.1034728412 1
164.5889106989 32.7751528025 0 -0 0
-25.4126843214 28.9751209021 0.1009500466 0.0973892947 1
-21.612652421 28.9751209021 0.1196836628 0.0733219267 1
-17.8126205206 28.9751209021 0.0835297093 0.0975680294 1
-14.0125886202 28.9751209021 0.0985210801 0.068874426 1
-10.2125567198 28.9751209021 0.1230119 0.0884719345 1
-6.4125248194 28.9751209021 0 -0 0
-2.612492919 28.9751209021 0 -0 0
1.1875389814 28.9751209021 0 -0 0
4.9875708818 28.9751209021 0 -0 0
8.7876027822 28.9751209021 0 -0 0
12.5876346827 28.9751209021 0 -0 0
16.3876665831 28.9751209021 0.0653904396 0.0754726226 1
20.1876984835 28.9751209021 0.0741624834 0.1116828262 1
23.9877303839 28.9751209021 0.0878228801 0.1362836947 1
27.7877622843 28.9751209021 0.0892227184 0.1249386215 1
31.5877941847 28.9751209021 0.0961826361 0.1037649117 1
35.3878260851 28.9751209021 0.0789081312 0.1485593556 1
39.1878579855 28.9751209021 0.0764416913 0.1777730774 1
42.9878898859 28.9751209021 0.0802722717 0.1692671633 1
46.7879217863 28.9751209021 0.0521076406 0.1509223396 1
50.5879536867 28.9751209021 0.0987648757 0.132831013 1
54.3879855871 28.9751209021 0.0785579244 0.0999035734 1
58.1880174875 28.9751209021 0.0683205206 0.0876303026 1
61.9880493879 28.9751209021 0.0840859925 0.1081900844 1
65.7880812883 28.9751209021 0.0820965019 0.0734670649 1
69.5881131887 28.9751209021 0.0895304382 0.107649899 1
73.3881450891 28.9751209021 0.0728196203 0.1028904451 1
77.1881769896 28.9751209021 0.0839630779 0.1106825266 1
80.98820889 28.9751209021 0.0897135475 0.1155947988 1
84.7882407904 28.9751209021 0.0904526512 0.0991766105 1
88.5882726908 28.9751209021 0.0690835068 0.0939882611 1
92.3883045912 28.9751209021 0 -0 0
96.1883364916 28.9751209021 0 -0 0
99.988368392 28.9751209021 0 -0 0
103.7884002924 28.9751209021 0.0710251771 0.083148124 1
107.5884321928 28.9751209021 0.054334248 0.0946093164 1
111.3884640932 28.9751209021 0.0626591295 0.1049527445 1
115.1884959936 28.9751209021 0.0820577013 0.0883001428 1
118.988527894 28.9751209021 0.0850682897 0.06882483 1
122.7885597944 28.9751209021 0.0875372365 0.0681621478 1
126.5885916948 28.9751209021 0.0986373345 0.0726479023 1
130.3886235952 28.9751209021 0.1013303416 0.0820181327 1
134.1886554956 28.9751209021 0.0679031699 0.0952276622 1
137.988687396 28.9751209021 0.0753752616 0.0770838765 1
141.7887192965 28.9751209021 0.0820848095 0.0818152083 1
145.5887511969 28.9751209021 0.0868748061 0.0636680556 1
149.3887830973 28.9751209021 0.0786645753 0.0635724704 1
153.1888149977 28.9751209021 0.0867054229 0.098524951 1
156.9888468981 28.9751209021 0.1214853991 0.1170916847 1
160.7888787985 28.9751209021 0.1315834832 0.099592591 1
164.5889106989 28.9751209021 0 -0 0
-25.4126843214 25.1750890017 0.1149266544 0.076949423 1
-21.612652421 25.1750890017 0.1061080376 0.0811745162 1
-17.8126205206 25.1750890017 0.1260956596 0.0726852467 1
-14.0125886202 25.1750890017 0.0893774845 0.1006208406 1
-10.2125567198 25.1750890017 0.0891993397 0.1026784396 1
-6.4125248194 25.1750890017 0.1093327696 0.0499058865 1
-2.612492919 25.1750890017 0 -0 0
1.1875389814 25.1750890017 0 -0 0
4.9875708818 25.1750890017 0 -0 0
8.7876027822 25.1750890017 0 -0 0
12.5876346827 25.1750890017 0 -0 0
16.3876665831 25.1750890017 0.0725106102 0.0970771327 1
20.1876984835 25.1750890017 0.0572811026 0.1551343456 1
23.9877303839 25.1750890017 0.1126390966 0.1149458489 1
27.7877622843 25.1750890017 0.103894333 0.1444333438 1
31.5877941847 25.1750890017 0.0667196626 0.1790594754 1
35.3878260851 25.1750890017 0.0770204684 0.1757405652 1
39.1878579855 25.1750890017 0.0757879058 0.1102470874 1
42.9878898859 25.1750890017 0.0978630675 0.1550053789 1
46.7879217863 25.1750890017 0.0597768135 0.1419907679 1
50.5879536867 25.1750890017 0.0709803798 0.152431182 1
54.3879855871 25.1750890017 0.0854079039 0.1606419167 1
58.1880174875 25.1750890017 0.1106578269 0.1215171154 1
61.9880493879 25.1750890017 0.0713039823 0.1348641029 1
65.7880812883 25.1750890017 0.0786151207 0.1192571082 1
69.5881131887 25.1750890017 0.1030856216 0.1392371974 1
73.3881450891 25.1750890017 0.0819001334 0.0998466474 1
77.1881769896 25.1750890017 0.0886435603 0.1253021367 1
80.98820889 25.1750890017 0.0801226053 0.0738951433 1
84.7882407904 25.1750890017 0.0913498206 0.1128782164 1
88.5882726908 25.1750890017 0.0900366769 0.0819893041 1
92.3883045912 25.1750890017 0 -0 0
96.1883364916 25.1750890017 0 -0 0
99.988368392 25.1750890017 0 -0 0
103.7884002924 25.1750890017 0.0887600297 0.0720349143 1
107.5884321928 25.1750890017 0.077281437 0.0478517067 1
111.3884640932 25.1750890017 0.0616066841 0.0448719806 1
115.1884959936 25.1750890017 0.078852047 0.0706317766 1
118.988527894 25.1750890017 0.0881502121 0.0816894981 1
122.7885597944 25.1750890017 0.1195279443 0.0672793497 1
126.5885916948 25.1750890017 0.0837321483 0.1117604151 1
130.3886235952 25.1750890017 0.0781583181 0.0735517073 1
134.1886554956 25.1750890017 0.0950675751 0.0779382085 1
137.988687396 25.1750890017 0.0966352667 0.0722731309 1
141.7887192965 25.1750890017 0.088074319 0.0923660521 1
145.5887511969 25.1750890017 0.0962981777 0.1365464697 1
149.3887830973 25.1750890017 0.0959392522 0.0700041285 1
153.1888149977 25.1750890017 0.1073728449 0.0902420835 1
156.9888468981 25.1750890017 0.1491766998 0.1176654543 1
160.7888787985 25.1750890017 0.1122637108 0.1351983594 1
164.5889106989 25.1750890017 0 -0 0
-25.4126843214 21.3750571012 0.1071618286 0.0819604325 1
-21.612652421 21.3750571012 0.1020937273 0.0716616052 1
-17.8126205206 21.3750571012 0.1222629225 0.0866283563 1
-14.0125886202 21.3750571012 0.0726185576 0.0873790603 1
-10.2125567198 21.3750571012 0.0923622919 0.0628727878 1
-6.4125248194 21.3750571012 0.0843303595 0.0890686957 1
-2.612492919 21.3750571012 0 -0 0
1.1875389814 21.3750571012 0 -0 0
4.9875708818 21.3750571012 0 -0 0
8.7876027822 21.3750571012 0 -0 0
12.5876346827 21.3750571012 0 -0 0
16.3876665831 21.3750571012 0.1024888298 0.0989464797 1
20.1876984835 21.3750571012 0.1009919255 0.1147085109 1
23.9877303839 21.3750571012 0.1019147653 0.1555494597 1
27.7877622843 21.3750571012 0.0787631651 0.128814073 1
31.5877941847 21.3750571012 0.0903542704 0.0790529806 1
35.3878260851 21.3750571012 0.0639169201 0.1269247328 1
39.1878579855 21.3750571012 0.0735201507 0.1467552108 1
42.9878898859 21.3750571012 0.0712031868 0.1376267299 1
46.7879217863 21.3750571012 0.1103922993 0.159188372 1
50.5879536867 21.3750571012 0.1266594264 0.1579983027 1
54.3879855871 21.3750571012 0.0921422744 0.1331117414 1
58.1880174875 21.3750571012 0.1026664339 0.1747664398 1
61.9880493879 21.3750571012 0.0694865353 0.1841503472 1
65.7880812883 21.3750571012 0.0953683335 0.1684039161 1
69.5881131887 21.3750571012 0.0934182702 0.1228837198 1
73.3881450891 21.3750571012 0.1091616538 0.1812794225 1
77.1881769896 21.3750571012 0.0887101204 0.1119619202 1
80.98820889 21.3750571012 0.1178725259 0.1223215381 1
84.7882407904 21.3750571012 0.0835191044 0.0964184319 1
88.5882726908 21.3750571012 0.0887991744 0.1070169116 1
92.3883045912 21.3750571012 0 -0 0
96.1883364916 21.3750571012 0 -0 0
99.988368392 21.3750571012 0 -0 0
103.7884002924 21.3750571012 0.0779133921 0.0822376709 1
107.5884321928 21.3750571012 0.0778088793 0.0572427444 1
111.3884640932 21.3750571012 0.0609574576 0.0851207672 1
115.1884959936 21.3750571012 0.0500186263 0.061490356 1
118.988527894 21.3750571012 0.0573521971 0.0730169903 1
122.7885597944 21.3750571012 0.0669306052 0.0957413231 1
126.5885916948 21.3750571012 0.089899692 0.0971597967 1
130.3886235952 21.3750571012 0.0923838457 0.0948215308 1
134.1886554956 21.3750571012 0.1019801211 0.0736851531 1
137.988687396 21.3750571012 0.0873743047 0.0859281269 1
141.7887192965 21.3750571012 0.079029049 0.0776434591 1
145.5887511969 21.3750571012 0.0660074398 0.0905631853 1
149.3887830973 21.3750571012 0.1320367406 0.0990357118 1
153.1888149977 21.3750571012 0.1680210836 0.1245050747 1
156.9888468981 21.3750571012 0.1002831126 0.0996381011 1
160.7888787985 21.3750571012 0.0865896294 0.1179074987 1
164.5889106989 21.3750571012 0 -0 0
-25.4126843214 17.5750252008 0.0913323833 0.0723833271 1
-21.612652421 17.5750252008 0.1171643214 0.0833730876 1
-17.8126205206 17.5750252008 0.1230637816 0.0834950007 1
-14.0125886202 17.5750252008 0.1111918804 0.0823538577 1
-10.2125567198 17.5750252008 0.1192750124 0.0698241589 1
-6.4125248194 17.5750252008 0.1015240743 0.0750325445 1
-2.612492919 17.5750252008 0 -0 0
1.1875389814 17.5750252008 0 -0 0
4.9875708818 17.5750252008 0 -0 0
8.7876027822 17.5750252008 0 -0 0
12.5876346827 17.5750252008 0 -0 0
16.3876665831 17.5750252008 0.0850001997 0.1189413088 1
20.1876984835 17.5750252008 0.0957738443 0.1536667429 1
23.9877303839 17.5750252008 0.0674966392 0.1244708516 1
27.7877622843 17.5750252008 0.0884166122 0.1042351638 1
31.5877941847 17.5750252008 0.0893976928 0.1626119179 1
35.3878260851 17.5750252008 0.0749589862 0.1127077764 1
39.1878579855 17.5750252008 0.0877634227 0.1241155081 1
42.9878898859 17.5750252008 0.0841865668 0.1289443299 1
46.7879217863 17.5750252008 0.0931095674 0.0947215217 1
50.5879536867 17.5750252008 0.0730741559 0.1564618482 1
54.3879855871 17.5750252008 0.0838314999 0.1477877675 1
58.1880174875 17.5750252008 0.1048300817 0.1772915077 1
61.9880493879 17.5750252008 0.0953770706 0.1839407072 1
65.7880812883 17.5750252008 0.0968307381 0.1331874624 1
69.5881131887 17.5750252008 0.0936872815 0.1233996602 1
73.3881450891 17.5750252008 0.0905609058 0.1549537185 1
77.1881769896 17.5750252008 0.128984599 0.1160430671 1
80.98820889 17.5750252008 0.0964699325 0.1018651263 1
84.7882407904 17.5750252008 0.1157481211 0.0692863513 1
88.5882726908 17.5750252008 0.0972389278 0.1197981906 1
92.3883045912 17.5750252008 0.096615679 0.1218583149 1
96.1883364916 17.5750252008 0 -0 0
99.988368392 17.5750252008 0 -0 0
103.7884002924 17.5750252008 0.0852074127 0.058628832 1
107.5884321928 17.5750252008 0.0840200346 0.0761641641 1
111.3884640932 17.5750252008 0.0592160021 0.0746958488 1
115.1884959936 17.5750252008 0.0653967804 0.0688418187 1
118.988527894 17.5750252008 0.0695405735 0.0703786234 1
122.7885597944 17.5750252008 0.1081797867 0.055715881 1
126.5885916948 17.5750252008 0.095088066 0.0786967955 1
130.3886235952 17.5750252008 0.0825977392 0.082423453 1
134.1886554956 17.5750252008 0.0819158933 0.0687078077 1
137.988687396 17.5750252008 0.1005404561 0.0859767336 1
141.7887192965 17.5750252008 0.0796192236 0.0901785218 1
145.5887511969 17.5750252008 0.0996220279 0.0792300441 1
149.3887830973 17.5750252008 0.08903317 0.1081127658 1
153.1888149977 17.5750252008 0.1071143463 0.1071515187 1
156.9888468981 17.5750252008 0.1081349095 0.0990713482 1
160.7888787985 17.5750252008 0.1063101939 0.1259224424 1
164.5889106989 17.5750252008 0 -0 0
-25.4126843214 13.7749933004 0.1028674351 0.0676415501 1
-21.612652421 13.7749933004 0.0931919549 0.0723167854 1
-17.8126205206 13.7749933004 0.094797507 0.0666427373 1
-14.0125886202 13.7749933004 0.1124864993 0.0524293814 1
-10.2125567198 13.7749933004 0.1018133492 0.0586412863 1
-6.4125248194 13.7749933004 0.1008981405 0.0985083617 1
-2.612492919 13.7749933004 0 -0 0
1.1875389814 13.7749933004 0 -0 0
4.9875708818 13.7749933004 0 -0 0
8.7876027822 13.7749933004 0 -0 0
12.5876346827 13.7749933004 0 -0 0
16.3876665831 13.7749933004 0.0839572777 0.1128152998 1
20.1876984835 13.7749933004 0.0674985562 0.1000608771 1
23.9877303839 13.7749933004 0.0928410353 0.1240958836 1
27.7877622843 13.7749933004 0.0923635883 0.1136167856 1
31.5877941847 13.7749933004 0.102367273 0.1268535953 1
35.3878260851 13.7749933004 0.0656363303 0.0758280029 1
39.1878579855 13.7749933004 0.0633245889 0.1510313376 1
42.9878898859 13.7749933004 0.0945993813 0.1324616731 1
46.7879217863 13.7749933004 0.1106905632 0.139646069 1
50.5879536867 13.7749933004 0.0772516007 0.1130443186 1
54.3879855871 13.7749933004 0.0827573409 0.1302914326 1
58.1880174875 13.7749933004 0.0630940894 0.1107279567 1
61.9880493879 13.7749933004 0.0728488482 0.1498240523 1
65.7880812883 13.7749933004 0.0744764211 0.1125336376 1
69.5881131887 13.7749933004 0.0652902216 0.1250164807 1
73.3881450891 13.7749933004 0.0802639402 0.1331871921 1
77.1881769896 13.7749933004 0.1036383166 0.1330950537 1
80.98820889 13.7749933004 0.083216042 0.0960440476 1
84.7882407904 13.7749933004 0.0928252079 0.1249582706 1
88.5882726908 13.7749933004 0.1146689914 0.1049863163 1
92.3883045912 13.7749933004 0.1096934585 0.0880916272 1
96.1883364916 13.7749933004 0 -0 0
99.988368392 13.7749933004 0 -0 0
103.7884002924 13.7749933004 0.0760777091 0.0577304092 1
107.5884321928 13.7749933004 0.0825593933 0.0653741636 1
111.3884640932 13.7749933004 0.0812724915 0.0689105907 1
115.1884959936 13.7749933004 0.1122689456 0.063180612 1
118.988527894 13.7749933004 0.1090031704 0.0512405778 1
122.7885597944 13.7749933004 0.0913452738 0.0778731722 1
126.5885916948 13.7749933004 0.0832038089 0.0726149571 1
130.3886235952 13.7749933004 0.0647411947 0.0637826142 1
134.1886554956 13.7749933004 0.0540686344 0.0979882002 1
137.988687396 13.7749933004 0.0707795568 0.054688123 1
141.7887192965 13.7749933004 0.1349841727 0.1296796427 1
145.5887511969 13.7749933004 0.1091008754 0.1327475134 1
149.3887830973 13.7749933004 0.0772170151 0.0897104262 1
153.1888149977 13.7749933004 0.1192204273 0.1098734834 1
156.9888468981 13.7749933004 0.0950885699 0.1250435152 1
160.7888787985 13.7749933004 0.1083193214 0.1207188861 1
164.5889106989 13.7749933004 0 -0 0
-25.4126843214 9.9749614 0.0986620157 0.095258377 1
-21.612652421 9.9749614 0.1135466189 0.0776402088 1
-17.8126205206 9.9749614 0.104945482 0.0765161712 1
-14.0125886202 9.9749614 0.1299266271 0.0781290595 1
-10.2125567198 9.9749614 0.1158098703 0.0920515676 1
-6.4125248194 9.9749614 0.1534510202 0.0517874113 1
-2.612492919 9.9749614 0 -0 0
1.1875389814 9.9749614 0 -0 0
4.9875708818 9.9749614 0 -0 0
8.7876027822 9.9749614 0 -0 0
12.5876346827 9.9749614 0.1411140157 0.1097876613 1
16.3876665831 9.9749614 0.124890537 0.1291217375 1
20.1876984835 9.9749614 0.0807741788 0.1224918184 1
23.9877303839 9.9749614 0.0900288492 0.0971167935 1
27.7877622843 9.9749614 0.0935697431 0.0900816708 1
31.5877941847 9.9749614 0.0914837763 0.1097032278 1
35.3878260851 9.9749614 0.0735527334 0.1150977702 1
39.1878579855 9.9749614 0.0570093694 0.1364859371 1
42.9878898859 9.9749614 0.0681688511 0.1571207149 1
46.7879217863 9.9749614 0.0662774895 0.1083443774 1
50.5879536867 9.9749614 0.0801266789 0.0932061234 1
54.3879855871 9.9749614 0.0861057187 0.1679567661 1
58.1880174875 9.9749614 0.0831305516 0.1243321279 1
61.9880493879 9.9749614 0.0820964712 0.117616571 1
65.7880812883 9.9749614 0.0759600293 0.149124597 1
69.5881131887 9.9749614 0.1220072011 0.1419138303 1
73.3881450891 9.9749614 0.0881015624 0.0970499016 1
77.1881769896 9.9749614 0.0544860158 0.1064362605 1
80.98820889 9.9749614 0.0869192041 0.1145775903 1
84.7882407904 9.9749614 0.1140339396 0.0935154038 1
88.5882726908 9.9749614 0.1036046464 0.0822196009 1
92.3883045912 9.9749614 0.1062329245 0.0968639537 1
96.1883364916 9.9749614 0 -0 0
99.988368392 9.9749614 0 -0 0
103.7884002924 9.9749614 0.0966624118 0.0831623663 1
107.5884321928 9.9749614 0.0808552207 0.0594997595 1
111.3884640932 9.9749614 0.0860870772 0.055764199 1
115.1884959936 9.9749614 0.0803575347 0.0679250433 1
118.988527894 9.9749614 0.0768727128 0.0751542058 1
122.7885597944 9.9749614 0.0696994993 0.0725812439 1
126.5885916948 9.9749614 0.0801103537 0.0686944625 1
130.3886235952 9.9749614 0.077033064 0.0646496892 1
134.1886554956 9.9749614 0.0667572405 0.0668452684 1
137.988687396 9.9749614 0.096537445 0.0879025273 1
141.7887192965 9.9749614 0.1011961586 0.1070166658 1
145.5887511969 9.9749614 0.090044609 0.0988675882 1
149.3887830973 9.9749614 0.1441662433 0.1231172729 1
153.1888149977 9.9749614 0.0814430482 0.0907198562 1
156.9888468981 9.9749614 0.1110588463 0.1167710682 1
160.7888787985 9.9749614 0.1449804721 0.1143594837 1
164.5889106989 9.9749614 0 -0 0
-25.4126843214 6.1749294996 0.087335246 0.0718862985 1
-21.612652421 6.1749294996 0.1191954696 0.0596788075 1
-17.8126205206 6.1749294996 0.1170659528 0.0626649174 1
-14.0125886202 6.1749294996 0.1066626741 0.0525807744 1
-10.2125567198 6.1749294996 0.1248119404 0.0532320223 1
-6.4125248194 6.1749294996 0.1267567996 0.0612577921 1
-2.612492919 6.1749294996 0.1729651459 0.0865642232 1
1.1875389814 6.1749294996 0 -0 0
4.9875708818 6.1749294996 0 -0 0
8.7876027822 6.1749294996 0 -0 0
12.5876346827 6.1749294996 3.8013315717 5.0750318194 1
16.3876665831 6.1749294996 0.1223876128 0.105714551 1
20.1876984835 6.1749294996 0.0787431534 0.1126758757 1
23.9877303839 6.1749294996 0.0927678948 0.0901999527 1
27.7877622843 6.1749294996 0.1078578063 0.0840234753 1
31.5877941847 6.1749294996 0.0766032222 0.0889578298 1
35.3878260851 6.1749294996 0.059017821 0.1086085901 1
39.1878579855 6.1749294996 0.0718167646 0.1030921714 1
42.9878898859 6.1749294996 0.0896736655 0.0647177731 1
46.7879217863 6.1749294996 0.0933781978 0.1296641716 1
50.5879536867 6.1749294996 0.1027227946 0.1202058826 1
54.3879855871 6.1749294996 0.1055699412 0.1189582053 1
58.1880174875 6.1749294996 0.0970437881 0.0828267089 1
61.9880493879 6.1749294996 0.0860170334 0.095777838 1
65.7880812883 6.1749294996 0.0955120647 0.1324379811 1
69.5881131887 6.1749294996 0.0901531094 0.1438195509 1
73.3881450891 6.1749294996 0.0899626577 0.1117920086 1
77.1881769896 6.1749294996 0.0958799054 0.113005008 1
80.98820889 6.1749294996 0.1026262324 0.1518456893 1
84.7882407904 6.1749294996 0.1105924895 0.0607121199 1
88.5882726908 6.1749294996 0.0878568207 0.0846706127 1
92.3883045912 6.1749294996 0.1257769601 0.116329829 1
96.1883364916 6.1749294996 0 -0 0
99.988368392 6.1749294996 0 -0 0
103.7884002924 6.1749294996 0.1154471046 0.0798578027 1
107.5884321928 6.1749294996 0.1196905935 0.0711217516 1
111.3884640932 6.1749294996 0.09447678 0.0624804256 1
115.1884959936 6.1749294996 0.0916480475 0.0812041865 1
118.988527894 6.1749294996 0.0929759373 0.0695400882 1
122.7885597944 6.1749294996 0.0973938291 0.0481855792 1
126.5885916948 6.1749294996 0.0870288411 0.0789796927 1
130.3886235952 6.1749294996 0.0840347438 0.0526797635 1
134.1886554956 6.1749294996 0.0865200587 0.0757792487 1
137.988687396 6.1749294996 0.0742488954 0.0916576816 1
141.7887192965 6.1749294996 0.0931329768 0.0930515723 1
145.5887511969 6.1749294996 0.1113751495 0.1012278872 1
149.3887830973 6.1749294996 0.1423862821 0.0827889405 1
153.1888149977 6.1749294996 0.0990997958 0.0783098586 1
156.9888468981 6.1749294996 0.09401446 0.1338029511 1
160.7888787985 6.1749294996 0.1339673575 0.1133302326 1
164.5889106989 6.1749294996 0 -0 0
-25.4126843214 2.3748975992 0.0930530039 0.0566359928 1
-21.612652421 2.3748975992 0.0903023949 0.0693730336 1
-17.8126205206 2.3748975992 0.0843711938 0.0702995906 1
-14.0125886202 2.3748975992 0.1341520274 0.0687559843 1
-10.2125567198 2.3748975992 0.1226616931 0.0793149077 1
-6.4125248194 2.3748975992 0.1528868356 0.0613377158 1
-2.612492919 2.3748975992 0.1252769578 0.0754815194 1
1.1875389814 2.3748975992 0 -0 0
4.9875708818 2.3748975992 0 -0 0
8.7876027822 2.3748975992 0 -0 0
12.5876346827 2.3748975992 0.0865806896 0.1467636283 1
16.3876665831 2.3748975992 0.0964275191 0.0815825952 1
20.1876984835 2.3748975992 0.1589384384 0.0817810712 1
23.9877303839 2.3748975992 0.1040900625 0.0944143365 1
27.7877622843 2.3748975992 0.1061664197 0.0939242632 1
31.5877941847 2.3748975992 0.0856283515 0.0680561543 1
35.3878260851 2.3748975992 0.0758759153 0.0968237583 1
39.1878579855 2.3748975992 0.0867214347 0.0905773292 1
42.9878898859 2.3748975992 0.1038427832 0.0860568601 1
46.7879217863 2.3748975992 0.0670113215 0.0793552075 1
50.5879536867 2.3748975992 0.1162043153 0.1091113328 1
54.3879855871 2.3748975992 0.0628159417 0.0724381026 1
58.1880174875 2.3748975992 0.1062137669 0.1228516593 1
61.9880493879 2.3748975992 0.115140497 0.111074858 1
65.7880812883 2.3748975992 0.0625700325 0.1422752933 1
69.5881131887 2.3748975992 0.10500948 0.153164246 1
73.3881450891 2.3748975992 0.1192699127 0.1316020141 1
77.1881769896 2.3748975992 0.0889387705 0.135937285 1
80.98820889 2.3748975992 0.1166123514 0.0950981855 1
84.7882407904 2.3748975992 0.0915346503 0.1494388726 1
88.5882726908 2.3748975992 0.1149118592 0.0730265998 1
92.3883045912 2.3748975992 0.0923751087 0.0925122963 1
96.1883364916 2.3748975992 0 -0 0
99.988368392 2.3748975992 0 -0 0
103.7884002924 2.3748975992 0.0776122343 0.0773372201 1
107.5884321928 2.3748975992 0.1155377561 0.0499418024 1
111.3884640932 2.3748975992 0.1052832162 0.0807188872 1
115.1884959936 2.3748975992 0.0880509957 0.0575145759 1
118.988527894 2.3748975992 0.1053070925 0.0534279976 1
122.7885597944 2.3748975992 0.0977795802 0.0611145586 1
126.5885916948 2.3748975992 0.0710163111 0.0892855059 1
130.3886235952 2.3748975992 0.1072384344 0.0496825142 1
134.1886554956 2.3748975992 0.1122437298 0.0576729672 1
137.988687396 2.3748975992 0.1051687498 0.081141657 1
141.7887192965 2.3748975992 0.1140007487 0.087575865 1
145.5887511969 2.3748975992 0.0844002866 0.1097051447 1
149.3887830973 2.3748975992 0.1006242752 0.1241548924 1
153.1888149977 2.3748975992 0.1331625784 0.1653085194 1
156.9888468981 2.3748975992 0.1065611843 0.1305762283 1
160.7888787985 2.3748975992 0.0969990522 0.1382128125 1
164.5889106989 2.3748975992 0 -0 0
-25.4126843214 -1.4251343012 0.0705207202 0.0693921421 1
-21.612652421 -1.4251343012 0.0821899674 0.0711861305 1
-17.8126205206 -1.4251343012 0.098909848 0.0808246042 1
-14.0125886202 -1.4251343012 0.0921613644 0.0550489102 1
-10.2125567198 -1.4251343012 0.1325580633 0.0910893619 1
-6.4125248194 -1.4251343012 0.1565847321 0.0779156163 1
-2.612492919 -1.4251343012 0.125092423 0.0938591408 1
1.1875389814 -1.4251343012 0 -0 0
4.9875708818 -1.4251343012 0 -0 0
8.7876027822 -1.4251343012 0 -0 0
12.5876346827 -1.4251343012 0.1332958829 0.1127534892 1
16.3876665831 -1.4251343012 0 -0 0
20.1876984835 -1.4251343012 0 -0 0
23.9877303839 -1.4251343012 0.1915106391 0.0982132436 1
27.7877622843 -1.4251343012 0.1168146675 0.1153848148 1
31.5877941847 -1.4251343012 0.1247327049 0.0959213296 1
35.3878260851 -1.4251343012 0.0835276571 0.0740370128 1
39.1878579855 -1.4251343012 0.07247157 0.0925219058 1
42.9878898859 -1.4251343012 0.0813760949 0.0951992084 1
46.7879217863 -1.4251343012 0.0908479258 0.0928921735 1
50.5879536867 -1.4251343012 0.0768885095 0.1099844599 1
54.3879855871 -1.4251343012 0.0984926079 0.0978499312 1
58.1880174875 -1.4251343012 0.0753612836 0.127742943 1
61.9880493879 -1.4251343012 0.0930124338 0.1116379121 1
65.7880812883 -1.4251343012 0.1338705741 0.0935634146 1
69.5881131887 -1.4251343012 0.1346755744 0.1162922756 1
73.3881450891 -1.4251343012 0.1235789232 0.1384813998 1
77.1881769896 -1.4251343012 0.101273004 0.1178905284 1
80.98820889 -1.4251343012 0.0758998408 0.1484762615 1
84.7882407904 -1.4251343012 0.1572346406 0.1311241554 1
88.5882726908 -1.4251343012 0.1089578016 0.110229515 1
92.3883045912 -1.4251343012 0.10784757 0.1357555519 1
96.1883364916 -1.4251343012 0.1164873047 0.0820919122 1
99.988368392 -1.4251343012 0 -0 0
103.7884002924 -1.4251343012 0.1522968576 0.0899221491 1
107.5884321928 -1.4251343012 0.1303980221 0.0568394394 1
111.3884640932 -1.4251343012 0.1615443147 0.0769976427 1
115.1884959936 -1.4251343012 0.0917140853 0.0902595944 1
118.988527894 -1.4251343012 0.097724264 0.0946135129 1
122.7885597944 -1.4251343012 0.1175550062 0.0952895096 1
126.5885916948 -1.4251343012 0.1187725523 0.0981080612 1
130.3886235952 -1.4251343012 0.1288784273 0.1197042213 1
134.1886554956 -1.4251343012 0.1023185987 0.1425827489 1
137.988687396 -1.4251343012 0.095068847 0.0940904575 1
141.7887192965 -1.4251343012 0.0780670338 0.122515793 1
145.5887511969 -1.4251343012 0.1086235451 0.118328032 1
149.3887830973 -1.4251343012 0.1374376976 0.1398426464 1
153.1888149977 -1.4251343012 0.1596131202 0.1458214159 1
156.9888468981 -1.4251343012 0.158280137 0.1363686935 1
160.7888787985 -1.4251343012 0.1499104028 0.1479169553 1
164.5889106989 -1.4251343012 0 -0 0
-25.4126843214 -5.2251662016 0.091241695 0.0949299267 1
-21.612652421 -5.2251662016 0.0822840965 0.0882212452 1
-17.8126205206 -5.2251662016 0.1061518211 0.0829130532 1
-14.0125886202 -5.2251662016 0.1284668768 0.0857148065 1
-10.2125567198 -5.2251662016 0.1444941959 0.0901706572 1
-6.4125248194 -5.2251662016 0 -0 0
-2.612492919 -5.2251662016 0 -0 0
1.1875389814 -5.2251662016 0 -0 0
4.9875708818 -5.2251662016 0 -0 0
8.7876027822 -5.2251662016 0 -0 0
12.5876346827 -5.2251662016 0 -0 0
16.3876665831 -5.2251662016 0 -0 0
20.1876984835 -5.2251662016 0 -0 0
23.9877303839 -5.2251662016 0 -0 0
27.7877622843 -5.2251662016 0 -0 0
31.5877941847 -5.2251662016 0 -0 0