TITLE = "B00001"
VARIABLES = "x", "y", "Vx", "Vy", "isValid"
ZONE T="Frame 0", I=51, J=39, F=POINT
-25.4126843214 36.5751847029 10.0255061417 0.3828032576 1
-21.612652421 36.5751847029 10.0503927891 0.2340071538 1
-17.8126205206 36.5751847029 9.9568232733 0.2495711391 1
-14.0125886202 36.5751847029 10.1577064285 0.4055900645 1
-10.2125567198 36.5751847029 10.3137143435 0.2545792977 1
-6.4125248194 36.5751847029 0 -0 0
-2.612492919 36.5751847029 0 -0 0
1.1875389814 36.5751847029 0 -0 0
4.9875708818 36.5751847029 0 -0 0
8.7876027822 36.5751847029 0 -0 0
12.5876346827 36.5751847029 0 -0 0
16.3876665831 36.5751847029 10.2748570728 0.4458928433 1
20.1876984835 36.5751847029 10.4069661306 0.3511389232 1
23.9877303839 36.5751847029 10.5017845402 0.168555051 1
27.7877622843 36.5751847029 10.4085767947 0.4185917727 1
31.5877941847 36.5751847029 10.6433939992 0.2794423514 1
35.3878260851 36.5751847029 10.4442787996 0.1159017506 1
39.1878579855 36.5751847029 10.4779548911 0.2299348791 1
42.9878898859 36.5751847029 10.5564055562 0.3006357963 1
46.7879217863 36.5751847029 10.4346336901 0.0505581789 1
50.5879536867 36.5751847029 10.5367630046 0.0887721276 1
54.3879855871 36.5751847029 10.5016744362 -0.0098826195 1
58.1880174875 36.5751847029 10.421575357 0.042954712 1
61.9880493879 36.5751847029 10.4462606714 -0.1686352697 1
65.7880812883 36.5751847029 10.3914225932 -0.0598965701 1
69.5881131887 36.5751847029 10.3261686776 -0.0428493267 1
73.3881450891 36.5751847029 10.3616095787 -0.2701668767 1
77.1881769896 36.5751847029 10.4690773637 -0.2873714115 1
80.98820889 36.5751847029 10.3719782287 -0.1251032982 1
84.7882407904 36.5751847029 10.3276346335 0.0074839254 1
88.5882726908 36.5751847029 0 -0 0
92.3883045912 36.5751847029 0 -0 0
96.1883364916 36.5751847029 0 -0 0
99.988368392 36.5751847029 0 -0 0
103.7884002924 36.5751847029 10.1640358349 -0.1879223427 1
107.5884321928 36.5751847029 10.2014397329 -0.2581765523 1
111.3884640932 36.5751847029 10.0798723457 -0.1154487513 1
115.1884959936 36.5751847029 10.1155366007 0.0076097586 1
118.988527894 36.5751847029 10.1087510491 -0.2033809428 1
122.7885597944 36.5751847029 10.2112326963 -0.0047863777 1
126.5885916948 36.5751847029 10.1221585691 -0.3497657692 1
130.3886235952 36.5751847029 10.1907722293 -0.0476514336 1
134.1886554956 36.5751847029 10.1663826228 0.0850049983 1
137.988687396 36.5751847029 10.097652567 -0.1162509375 1
141.7887192965 36.5751847029 10.1622364212 -0.1655586496 1
145.5887511969 36.5751847029 10.1199124478 -0.0045378573 1
149.3887830973 36.5751847029 10.1947139521 -0.0915939356 1
153.1888149977 36.5751847029 10.0693652793 -0.1207762114 1
156.9888468981 36.5751847029 9.9330439575 -0.1113984974 1
160.7888787985 36.5751847029 10.0575432567 0.1042700506 1
164.5889106989 36.5751847029 0 -0 0
-25.4126843214 32.7751528025 9.8983454718 0.3461354834 1
-21.612652421 32.7751528025 10.127710956 0.3569807263 1
-17.8126205206 32.7751528025 10.0570210492 0.3943311452 1
-14.0125886202 32.7751528025 10.065524223 0.2430356809 1
-10.2125567198 32.7751528025 10.0812659476 0.4773574175 1
-6.4125248194 32.7751528025 0 -0 0
-2.612492919 32.7751528025 0 -0 0
1.1875389814 32.7751528025 0 -0 0
4.9875708818 32.7751528025 0 -0 0
8.7876027822 32.7751528025 0 -0 0
12.5876346827 32.7751528025 0 -0 0
16.3876665831 32.7751528025 10.2835489963 0.4185839082 1
20.1876984835 32.7751528025 10.5277690816 0.3609948031 1
23.9877303839 32.7751528025 10.4521402244 0.3933543655 1
27.7877622843 32.7751528025 10.5924441648 0.3243301748 1
31.5877941847 32.7751528025 10.6114701341 0.1030620525 1
35.3878260851 32.7751528025 10.5801188096 -0.0234977642 1
39.1878579855 32.7751528025 10.6541212736 0.2536040909 1
42.9878898859 32.7751528025 10.4703262576 0.1425217493 1
46.7879217863 32.7751528025 10.5162238919 0.1518035156 1
50.5879536867 32.7751528025 10.6016174 0.1221729592 1
54.3879855871 32.7751528025 10.5609512781 0.0460061654 1
58.1880174875 32.7751528025 10.5729148629 0.0384624692 1
61.9880493879 32.7751528025 10.5511583147 -0.0851308314 1
65.7880812883 32.7751528025 10.5809241417 -0.0237510034 1
69.5881131887 32.7751528025 10.5185801172 -0.2136457804 1
73.3881450891 32.7751528025 10.4402647227 -0.0074115714 1
77.1881769896 32.7751528025 10.3764924922 0.2465794564 1
80.98820889 32.7751528025 10.3950937747 -0.0182599601 1
84.7882407904 32.7751528025 10.2728909302 -0.1235115091 1
88.5882726908 32.7751528025 10.4045438428 -0.1674901882 1
92.3883045912 32.7751528025 0 -0 0
96.1883364916 32.7751528025 0 -0 0
99.988368392 32.7751528025 0 -0 0
103.7884002924 32.7751528025 10.11232471 -0.1742678752 1
107.5884321928 32.7751528025 10.2583666411 0.0253773966 1
111.3884640932 32.7751528025 10.2040350412 -0.0529804666 1
115.1884959936 32.7751528025 10.3449461265 -0.1388364115 1
118.988527894 32.7751528025 10.2074262441 -0.123440728 1
122.7885597944 32.7751528025 10.1533777688 -0.1135942855 1
126.5885916948 32.7751528025 10.0870228133 -0.1107756234 1
130.3886235952 32.7751528025 10.0626174777 -0.2309273879 1
134.1886554956 32.7751528025 10.0834114025 -0.0998706097 1
137.988687396 32.7751528025 10.0771512042 -0.1394844521 1
141.7887192965 32.7751528025 9.9992604965 -0.0872401093 1
145.5887511969 32.7751528025 10.0795451795 0.1267847434 1
149.3887830973 32.7751528025 10.1772766261 -0.1127181724 1
153.1888149977 32.7751528025 10.1402502275 -0.0099486819 1
156.9888468981 32.7751528025 10.0083582319 -0.0944424831 1
160.7888787985 32.7751528025 10.175555858 0.0641497299 1
164.5889106989 32.7751528025 0 -0 0
-25.4126843214 28.9751209021 10.0937234275 0.4013526339 1
-21.612652421 28.9751209021 9.9329810409 0.3465491598 1
-17.8126205206 28.9751209021 10.1827944088 0.4665892474 1
-14.0125886202 28.9751209021 10.194238932 0.3723701181 1
-10.2125567198 28.9751209021 10.1724886755 0.3738675324 1
-6.4125248194 28.9751209021 0 -0 0
-2.612492919 28.9751209021 0 -0 0
1.1875389814 28.9751209021 0 -0 0
4.9875708818 28.9751209021 0 -0 0
8.7876027822 28.9751209021 0 -0 0
12.5876346827 28.9751209021 0 -0 0
16.3876665831 28.9751209021 10.3857066232 0.3431091966 1
20.1876984835 28.9751209021 10.6270702964 0.1593299097 1
23.9877303839 28.9751209021 10.4463865045 0.4359064115 1
27.7877622843 28.9751209021 10.5419504754 0.2484292035 1
31.5877941847 28.9751209021 10.4581519022 0.2651005203 1
35.3878260851 28.9751209021 10.6097399285 -0.0923520802 1
39.1878579855 28.9751209021 10.5207979262 0.2529418941 1
42.9878898859 28.9751209021 10.5205934473 0.0973649575 1
46.7879217863 28.9751209021 10.671753641 -0.2199059786 1
50.5879536867 28.9751209021 10.4791565975 0.046800487 1
54.3879855871 28.9751209021 10.5212383421 0.0613247761 1
58.1880174875 28.9751209021 10.5971849279 -0.0322887813 1
61.9880493879 28.9751209021 10.6318204971 0.0491142437 1
65.7880812883 28.9751209021 10.536206193 -0.0603527152 1
69.5881131887 28.9751209021 10.4684167398 -0.1373767472 1
73.3881450891 28.9751209021 10.5781841253 -0.0756115551 1
77.1881769896 28.9751209021 10.4363167082 -0.2372599402 1
80.98820889 28.9751209021 10.3071867499 -0.2041186395 1
84.7882407904 28.9751209021 10.3955058782 -0.2259900105 1
88.5882726908 28.9751209021 10.3292861934 -0.1193134013 1
92.3883045912 28.9751209021 0 -0 0
96.1883364916 28.9751209021 0 -0 0
99.988368392 28.9751209021 0 -0 0
103.7884002924 28.9751209021 10.1713876356 -0.2792787683 1
107.5884321928 28.9751209021 10.2124312569 -0.4334558113 1
111.3884640932 28.9751209021 10.0445384027 -0.3658849932 1
115.1884959936 28.9751209021 10.2804346263 -0.2012464983 1
118.988527894 28.9751209021 10.326325969 -0.1417510214 1
122.7885597944 28.9751209021 10.0090031267 -0.1660210864 1
126.5885916948 28.9751209021 10.1968436778 -0.1967070681 1
130.3886235952 28.9751209021 10.0077070454 -0.087556265 1
134.1886554956 28.9751209021 10.1334426551 -0.2431882536 1
137.988687396 28.9751209021 10.0413296578 -0.1108401129 1
141.7887192965 28.9751209021 10.0886366232 -0.2791057477 1
145.5887511969 28.9751209021 10.1022895179 -0.2424977443 1
149.3887830973 28.9751209021 10.1989576744 -0.098602841 1
153.1888149977 28.9751209021 10.2118964661 -0.1162430729 1
156.9888468981 28.9751209021 10.0669838873 -0.0789901747 1
160.7888787985 28.9751209021 9.8882284881 -0.1182170802 1
164.5889106989 28.9751209021 0 -0 0
-25.4126843214 25.1750890017 10.0830810905 0.3389095159 1
-21.612652421 25.1750890017 10.1430846187 0.3908219738 1
-17.8126205206 25.1750890017 10.0523589317 0.3485923752 1
-14.0125886202 25.1750890017 10.1147627269 0.2479714854 1
-10.2125567198 25.1750890017 10.1273460399 0.4263210728 1
-6.4125248194 25.1750890017 10.1125669388 0.5505199454 1
-2.612492919 25.1750890017 0 -0 0
1.1875389814 25.1750890017 0 -0 0
4.9875708818 25.1750890017 0 -0 0
8.7876027822 25.1750890017 0 -0 0
12.5876346827 25.1750890017 0 -0 0
16.3876665831 25.1750890017 10.5472606335 0.4659333422 1
20.1876984835 25.1750890017 10.651072966 0.5221603036 1
23.9877303839 25.1750890017 10.573371008 0.413714166 1
27.7877622843 25.1750890017 10.6141598172 0.3297189786 1
31.5877941847 25.1750890017 10.723206808 0.1650112755 1
35.3878260851 25.1750890017 10.7879290786 0.3118601116 1
39.1878579855 25.1750890017 10.6284733358 0.1183995382 1
42.9878898859 25.1750890017 10.6666259409 0.0237918991 1
46.7879217863 25.1750890017 10.6386123403 0.2371954507 1
50.5879536867 25.1750890017 10.6717064536 -0.1602878144 1
54.3879855871 25.1750890017 10.637042572 0.1844886712 1
58.1880174875 25.1750890017 10.6115204673 0.0343603092 1
61.9880493879 25.1750890017 10.5863129455 0.0174955239 1
65.7880812883 25.1750890017 10.4973677973 -0.1053585071 1
69.5881131887 25.1750890017 10.4375341438 -0.1404974088 1
73.3881450891 25.1750890017 10.5107124008 -0.0509687095 1
77.1881769896 25.1750890017 10.459749983 -0.0625595137 1
80.98820889 25.1750890017 10.4737363354 -0.257742428 1
84.7882407904 25.1750890017 10.2933860013 -0.3119088719 1
88.5882726908 25.1750890017 10.3270432178 -0.3313202052 1
92.3883045912 25.1750890017 0 -0 0
96.1883364916 25.1750890017 0 -0 0
99.988368392 25.1750890017 0 -0 0
103.7884002924 25.1750890017 10.355541276 -0.068763087 1
107.5884321928 25.1750890017 10.1893094192 -0.1911625458 1
111.3884640932 25.1750890017 10.1895296271 -0.3090650432 1
115.1884959936 25.1750890017 10.2124815901 -0.2170810249 1
118.988527894 25.1750890017 10.1196135941 -0.1616184997 1
122.7885597944 25.1750890017 10.0047751335 -0.2432967847 1
126.5885916948 25.1750890017 10.074609375 -0.1824627578 1
130.3886235952 25.1750890017 10.0666850336 0.0049672628 1
134.1886554956 25.1750890017 10.1315079707 -0.0149977362 1
137.988687396 25.1750890017 10.2001153392 -0.0436908358 1
141.7887192965 25.1750890017 10.1446480954 -0.0888775129 1
145.5887511969 25.1750890017 10.2689617907 -0.0776736455 1
149.3887830973 25.1750890017 10.1396116243 -0.1534943983 1
153.1888149977 25.1750890017 9.9885458055 -0.188155134 1
156.9888468981 25.1750890017 9.855021125 -0.2144495395 1
160.7888787985 25.1750890017 9.9517301774 -0.0587672177 1
164.5889106989 25.1750890017 0 -0 0
-25.4126843214 21.3750571012 10.1687860356 0.4310995859 1
-21.612652421 21.3750571012 10.123479817 0.292472372 1
-17.8126205206 21.3750571012 10.0191641519 0.4641889804 1
-14.0125886202 21.3750571012 10.071274797 0.4129072611 1
-10.2125567198 21.3750571012 10.0725677325 0.4006290934 1
-6.4125248194 21.3750571012 10.322991391 0.4513980427 1
-2.612492919 21.3750571012 0 -0 0
1.1875389814 21.3750571012 0 -0 0
4.9875708818 21.3750571012 0 -0 0
8.7876027822 21.3750571012 0 -0 0
12.5876346827 21.3750571012 0 -0 0
16.3876665831 21.3750571012 10.7221152056 0.1671441471 1
20.1876984835 21.3750571012 10.6387192984 0.4319159283 1
23.9877303839 21.3750571012 10.6119829041 0.3327547029 1
27.7877622843 21.3750571012 10.7146470093 0.1949737168 1
31.5877941847 21.3750571012 10.8708247991 0.3290284693 1
35.3878260851 21.3750571012 10.6898736118 0.1910209836 1
39.1878579855 21.3750571012 10.814684348 0.1846962958 1
42.9878898859 21.3750571012 10.7342109153 0.3013782118 1
46.7879217863 21.3750571012 10.7339277907 0.2465715919 1
50.5879536867 21.3750571012 10.7145872386 0.044346741 1
54.3879855871 21.3750571012 10.5888547747 -0.0396059778 1
58.1880174875 21.3750571012 10.4899058926 0.0637313347 1
61.9880493879 21.3750571012 10.631949476 -0.3894205073 1
65.7880812883 21.3750571012 10.4473428363 -0.2850922589 1
69.5881131887 21.3750571012 10.6811628133 -0.2399826546 1
73.3881450891 21.3750571012 10.3833975853 -0.2530268315 1
77.1881769896 21.3750571012 10.5547036631 -0.2232028066 1
80.98820889 21.3750571012 10.6031651475 -0.4503929506 1
84.7882407904 21.3750571012 10.2852477436 -0.2914767174 1
88.5882726908 21.3750571012 10.3773544492 -0.2707032404 1
92.3883045912 21.3750571012 0 -0 0
96.1883364916 21.3750571012 0 -0 0
99.988368392 21.3750571012 0 -0 0
103.7884002924 21.3750571012 10.3348763302 -0.3532655031 1
107.5884321928 21.3750571012 10.0779596821 -0.2623321915 1
111.3884640932 21.3750571012 10.1183363878 -0.3114763205 1
115.1884959936 21.3750571012 10.0459854837 -0.2757082532 1
118.988527894 21.3750571012 10.1302496394 -0.2535175807 1
122.7885597944 21.3750571012 10.1251408143 -0.1804604381 1
126.5885916948 21.3750571012 10.2347037209 -0.2355816408 1
130.3886235952 21.3750571012 10.248293699 -0.2004395934 1
134.1886554956 21.3750571012 9.9776864063 -0.0417561514 1
137.988687396 21.3750571012 10.1585904062 -0.1499946643 1
141.7887192965 21.3750571012 10.0961048195 -0.013610426 1
145.5887511969 21.3750571012 10.1795479141 -0.2259679897 1
149.3887830973 21.3750571012 10.1708213865 -0.3502864038 1
153.1888149977 21.3750571012 9.8961842878 -0.0477552459 1
156.9888468981 21.3750571012 9.9890617213 0.0126242088 1
160.7888787985 21.3750571012 10.0939782396 0.0232901395 1
164.5889106989 21.3750571012 0 -0 0
-25.4126843214 17.5750252008 9.8507427986 0.4519705835 1
-21.612652421 17.5750252008 9.9953345029 0.4101735363 1
-17.8126205206 17.5750252008 10.1323416152 0.5749598851 1
-14.0125886202 17.5750252008 9.8271302117 0.4363200879 1
-10.2125567198 17.5750252008 10.0583894845 0.5525663066 1
-6.4125248194 17.5750252008 10.2775970893 0.6367533896 1
-2.612492919 17.5750252008 0 -0 0
1.1875389814 17.5750252008 0 -0 0
4.9875708818 17.5750252008 0 -0 0
8.7876027822 17.5750252008 0 -0 0
12.5876346827 17.5750252008 0 -0 0
16.3876665831 17.5750252008 10.7237258697 0.570492809 1
20.1876984835 17.5750252008 10.6283978359 0.4061893448 1
23.9877303839 17.5750252008 10.8568573216 0.3650749424 1
27.7877622843 17.5750252008 10.9036672461 0.1239409147 1
31.5877941847 17.5750252008 10.8264214332 0.2111967531 1
35.3878260851 17.5750252008 10.7464009998 0.321469044 1
39.1878579855 17.5750252008 10.9057057428 0.1165922599 1
42.9878898859 17.5750252008 10.7240373067 0.0928805794 1
46.7879217863 17.5750252008 10.9703147636 -0.0865920687 1
50.5879536867 17.5750252008 10.9271854582 -0.1275287318 1
54.3879855871 17.5750252008 10.5993146537 -0.0020620904 1
58.1880174875 17.5750252008 10.8595470048 -0.2598532788 1
61.9880493879 17.5750252008 10.5469083007 -0.0430192014 1
65.7880812883 17.5750252008 10.7074399168 -0.1588596083 1
69.5881131887 17.5750252008 10.6632756338 -0.3462487332 1
73.3881450891 17.5750252008 10.683861934 -0.4385819384 1
77.1881769896 17.5750252008 10.3650165108 -0.0043915762 1
80.98820889 17.5750252008 10.3771216579 -0.2802052147 1
84.7882407904 17.5750252008 10.4429040726 -0.3552662499 1
88.5882726908 17.5750252008 10.2290443759 -0.3695750497 1
92.3883045912 17.5750252008 10.088457311 -0.4359425885 1
96.1883364916 17.5750252008 0 -0 0
99.988368392 17.5750252008 0 -0 0
103.7884002924 17.5750252008 10.080196366 -0.2614073179 1
107.5884321928 17.5750252008 10.2332755149 -0.3522887234 1
111.3884640932 17.5750252008 10.1663668937 -0.3456636091 1
115.1884959936 17.5750252008 10.02707591 -0.4390679689 1
118.988527894 17.5750252008 10.1141209779 -0.2104527647 1
122.7885597944 17.5750252008 9.8860893249 -0.219605552 1
126.5885916948 17.5750252008 10.3118583048 -0.2108239724 1
130.3886235952 17.5750252008 10.0625514153 -0.3811721456 1
134.1886554956 17.5750252008 9.992364841 -0.1993181056 1
137.988687396 17.5750252008 9.9258714691 -0.2435940654 1
141.7887192965 17.5750252008 10.0365920405 -0.1622256446 1
145.5887511969 17.5750252008 9.9393230307 -0.1266966602 1
149.3887830973 17.5750252008 10.2448899128 -0.2194812918 1
153.1888149977 17.5750252008 9.9890365547 -0.2086486322 1
156.9888468981 17.5750252008 10.2774335062 0.0569221894 1
160.7888787985 17.5750252008 9.9612022663 0.0264343949 1
164.5889106989 17.5750252008 0 -0 0
-25.4126843214 13.7749933004 9.9647350314 0.3805020842 1
-21.612652421 13.7749933004 9.9191016467 0.4191297094 1
-17.8126205206 13.7749933004 9.8302131234 0.418843439 1
-14.0125886202 13.7749933004 10.1215891742 0.522463876 1
-10.2125567198 13.7749933004 9.861982843 0.584431974 1
-6.4125248194 13.7749933004 9.9178181487 0.6643784805 1
-2.612492919 13.7749933004 0 -0 0
1.1875389814 13.7749933004 0 -0 0
4.9875708818 13.7749933004 0 -0 0
8.7876027822 13.7749933004 0 -0 0
12.5876346827 13.7749933004 0 -0 0
16.3876665831 13.7749933004 10.7343493317 0.5208123162 1
20.1876984835 13.7749933004 10.9023522899 0.4365984937 1
23.9877303839 13.7749933004 10.8749363966 0.4504196902 1
27.7877622843 13.7749933004 10.8288751792 0.2802445376 1
31.5877941847 13.7749933004 10.7520760739 0.1481669381 1
35.3878260851 13.7749933004 10.9128153147 0.1354719482 1
39.1878579855 13.7749933004 10.8554983238 -0.1713689944 1
42.9878898859 13.7749933004 10.8930406382 0.2020675595 1
46.7879217863 13.7749933004 10.8979607136 -0.1476242827 1
50.5879536867 13.7749933004 10.9836090338 -0.1187078294 1
54.3879855871 13.7749933004 10.7044010467 -0.112669412 1
58.1880174875 13.7749933004 10.7653137193 -0.1218048973 1
61.9880493879 13.7749933004 10.6554016257 -0.3032452609 1
65.7880812883 13.7749933004 10.7515412831 -0.1835087457 1
69.5881131887 13.7749933004 10.5272563116 -0.276902095 1
73.3881450891 13.7749933004 10.5360205891 -0.3241461438 1
77.1881769896 13.7749933004 10.3706664183 -0.1286344904 1
80.98820889 13.7749933004 10.4135314742 -0.3459577441 1
84.7882407904 13.7749933004 10.3633492218 -0.293479037 1
88.5882726908 13.7749933004 10.5327143236 -0.367115012 1
92.3883045912 13.7749933004 10.3093164756 -0.3077406495 1
96.1883364916 13.7749933004 0 -0 0
99.988368392 13.7749933004 0 -0 0
103.7884002924 13.7749933004 10.2835427047 -0.3684331141 1
107.5884321928 13.7749933004 10.165445166 -0.2984211332 1
111.3884640932 13.7749933004 9.9549452139 -0.3054803719 1
115.1884959936 13.7749933004 10.0637153717 -0.2160366099 1
118.988527894 13.7749933004 9.919205459 -0.3500331646 1
122.7885597944 13.7749933004 10.0301934258 -0.3923492734 1
126.5885916948 13.7749933004 10.1472842994 -0.3572528404 1
130.3886235952 13.7749933004 10.0823732791 -0.0565100859 1
134.1886554956 13.7749933004 9.9917985919 -0.3357180731 1
137.988687396 13.7749933004 10.0063511934 -0.1529596074 1
141.7887192965 13.7749933004 10.2063031834 -0.2208560188 1
145.5887511969 13.7749933004 9.9478419336 -0.0233420457 1
149.3887830973 13.7749933004 10.1688458063 0.0710799895 1
153.1888149977 13.7749933004 10.1137340411 0.0189803548 1
156.9888468981 13.7749933004 10.1573257833 -0.1793436691 1
160.7888787985 13.7749933004 10.084609963 -0.0470427158 1
164.5889106989 13.7749933004 0 -0 0
-25.4126843214 9.9749614 10.0226340005 0.4362005464 1
-21.612652421 9.9749614 9.89482529 0.5313256742 1
-17.8126205206 9.9749614 9.7847275926 0.3465790451 1
-14.0125886202 9.9749614 9.8679190209 0.6286355798 1
-10.2125567198 9.9749614 10.0746219583 0.5074063691 1
-6.4125248194 9.9749614 10.0438903621 0.6048452536 1
-2.612492919 9.9749614 0 -0 0
1.1875389814 9.9749614 0 -0 0
4.9875708818 9.9749614 0 -0 0
8.7876027822 9.9749614 0 -0 0
12.5876346827 9.9749614 10.4934009078 0.6405661335 1
16.3876665831 9.9749614 10.7427077974 0.5169020517 1
20.1876984835 9.9749614 10.868260949 0.4809515263 1
23.9877303839 9.9749614 10.9957833892 0.371547484 1
27.7877622843 9.9749614 11.0080930152 0.4859313725 1
31.5877941847 9.9749614 10.9478598415 0.3174423838 1
35.3878260851 9.9749614 10.8513930179 0.1827631844 1
39.1878579855 9.9749614 11.0349269302 0.1092561884 1
42.9878898859 9.9749614 11.1210188122 -0.0349454332 1
46.7879217863 9.9749614 10.9368840467 0.0126305005 1
50.5879536867 9.9749614 10.8679809703 -0.1847985353 1
54.3879855871 9.9749614 10.8449283408 -0.1605489181 1
58.1880174875 9.9749614 10.7993830393 -0.4208866545 1
61.9880493879 9.9749614 10.8117870401 -0.1618324161 1
65.7880812883 9.9749614 10.7874855168 -0.4092282149 1
69.5881131887 9.9749614 10.5384680435 -0.0892864706 1
73.3881450891 9.9749614 10.3813213386 -0.3748962182 1
77.1881769896 9.9749614 10.6288854393 -0.5016762429 1
80.98820889 9.9749614 10.5482672985 -0.2804820476 1
84.7882407904 9.9749614 10.4161802616 -0.3729190652 1
88.5882726908 9.9749614 10.5151731852 -0.4655196658 1
92.3883045912 9.9749614 10.3779206983 -0.4944093796 1
96.1883364916 9.9749614 0 -0 0
99.988368392 9.9749614 0 -0 0
103.7884002924 9.9749614 10.4147929513 -0.562780811 1
107.5884321928 9.9749614 10.1594775298 -0.445073355 1
111.3884640932 9.9749614 10.1169490775 -0.354493949 1
115.1884959936 9.9749614 10.1681128284 -0.3356881877 1
118.988527894 9.9749614 10.0608400847 -0.2204643631 1
122.7885597944 9.9749614 10.0174716963 -0.3291590212 1
126.5885916948 9.9749614 10.1905331464 -0.285347071 1
130.3886235952 9.9749614 9.9963380221 -0.2108837432 1
134.1886554956 9.9749614 10.0333518374 -0.3168509681 1
137.988687396 9.9749614 9.9345224968 -0.2460603948 1
141.7887192965 9.9749614 9.8940325413 -0.0364680141 1
145.5887511969 9.9749614 9.9066536042 -0.215374413 1
149.3887830973 9.9749614 9.8611303235 0.1068386193 1
153.1888149977 9.9749614 9.9447338553 -0.2508294704 1
156.9888468981 9.9749614 9.9632942421 -0.2017152267 1
160.7888787985 9.9749614 9.8555024367 -0.0277037366 1
164.5889106989 9.9749614 0 -0 0
-25.4126843214 6.1749294996 9.7215687986 0.4892942629 1
-21.612652421 6.1749294996 9.9763777418 0.4353952144 1
-17.8126205206 6.1749294996 9.6746833742 0.4405087582 1
-14.0125886202 6.1749294996 9.6722201907 0.5984607951 1
-10.2125567198 6.1749294996 10.0007956607 0.6432133479 1
-6.4125248194 6.1749294996 10.0124918502 0.7237245306 1
-2.612492919 6.1749294996 10.1197645938 0.9749723962 1
1.1875389814 6.1749294996 0 -0 0
4.9875708818 6.1749294996 0 -0 0
8.7876027822 6.1749294996 0 -0 0
12.5876346827 6.1749294996 10.5884961503 0.89432437 1
16.3876665831 6.1749294996 10.8189721119 0.7236301557 1
20.1876984835 6.1749294996 11.0175776874 0.7707609547 1
23.9877303839 6.1749294996 10.7808415275 0.5984513576 1
27.7877622843 6.1749294996 11.1808241532 0.3297645931 1
31.5877941847 6.1749294996 11.04540883 0.2514806569 1
35.3878260851 6.1749294996 11.1591179382 -0.0238139199 1
39.1878579855 6.1749294996 11.1090489357 0.0835594902 1
42.9878898859 6.1749294996 11.0170963756 0.0540280274 1
46.7879217863 6.1749294996 11.0741145128 -0.089352533 1
50.5879536867 6.1749294996 10.9572784513 -0.1436573933 1
54.3879855871 6.1749294996 10.926326647 -0.1158435527 1
58.1880174875 6.1749294996 10.7518936159 -0.3233864263 1
61.9880493879 6.1749294996 10.744180045 -0.2777892186 1
65.7880812883 6.1749294996 10.6463762444 -0.1447584332 1
69.5881131887 6.1749294996 10.6589910157 0.0478401833 1
73.3881450891 6.1749294996 10.7609724763 -0.3198127654 1
77.1881769896 6.1749294996 10.5855139051 -0.4355226204 1
80.98820889 6.1749294996 10.6362435316 -0.5536122945 1
84.7882407904 6.1749294996 10.4952506549 -0.4810238804 1
88.5882726908 6.1749294996 10.5837742621 -0.4697681069 1
92.3883045912 6.1749294996 10.3559533795 -0.4339449876 1
96.1883364916 6.1749294996 0 -0 0
99.988368392 6.1749294996 0 -0 0
103.7884002924 6.1749294996 10.0319928396 -0.5802779078 1
107.5884321928 6.1749294996 10.1229985053 -0.4742115893 1
111.3884640932 6.1749294996 10.1006599788 -0.4468287272 1
115.1884959936 6.1749294996 10.0511100379 -0.378233942 1
118.988527894 6.1749294996 9.8955960179 -0.254005184 1
122.7885597944 6.1749294996 9.7991952567 -0.3231316142 1
126.5885916948 6.1749294996 10.1378940021 -0.2776916979 1
130.3886235952 6.1749294996 10.0217405853 -0.2160995264 1
134.1886554956 6.1749294996 9.7733711526 -0.1394514209 1
137.988687396 6.1749294996 9.9320561674 0.0075594253 1
141.7887192965 6.1749294996 10.1635482315 -0.3682773956 1
145.5887511969 6.1749294996 10.1221334025 -0.2317012617 1
149.3887830973 6.1749294996 10.0470078779 0.0271422062 1
153.1888149977 6.1749294996 10.1677793706 -0.0593539147 1
156.9888468981 6.1749294996 9.9229489946 -0.1403039404 1
160.7888787985 6.1749294996 9.7348536314 -0.0613892656 1
164.5889106989 6.1749294996 0 -0 0
-25.4126843214 2.3748975992 9.658476067 0.359642097 1
-21.612652421 2.3748975992 9.8512618603 0.4070969163 1
-17.8126205206 2.3748975992 9.9063201464 0.4964777617 1
-14.0125886202 2.3748975992 9.7421110571 0.5509037364 1
-10.2125567198 2.3748975992 9.8512555686 0.6778552087 1
-6.4125248194 2.3748975992 9.762373337 0.8643509183 1
-2.612492919 2.3748975992 10.072979836 1.0101852248 1
1.1875389814 2.3748975992 0 -0 0
4.9875708818 2.3748975992 0 -0 0
8.7876027822 2.3748975992 0 -0 0
12.5876346827 2.3748975992 10.6868441792 1.1826521133 1
16.3876665831 2.3748975992 11.0304378333 0.9034677198 1
20.1876984835 2.3748975992 11.2755859379 0.684535375 1
23.9877303839 2.3748975992 11.182403359 0.5664535655 1
27.7877622843 2.3748975992 11.3443631811 0.5239314049 1
31.5877941847 2.3748975992 11.2055849674 0.321852835 1
35.3878260851 2.3748975992 11.1588851469 0.1049699974 1
39.1878579855 2.3748975992 11.1342155617 -0.0969386978 1
42.9878898859 2.3748975992 10.8441985087 -0.0761117418 1
46.7879217863 2.3748975992 10.9941412668 -0.2270375713 1
50.5879536867 2.3748975992 11.0274807547 -0.3928463143 1
54.3879855871 2.3748975992 10.9434808485 -0.3177789874 1
58.1880174875 2.3748975992 10.837287124 -0.6141569052 1
61.9880493879 2.3748975992 10.8344684619 -0.3386672871 1
65.7880812883 2.3748975992 10.8122809352 -0.4291649015 1
69.5881131887 2.3748975992 10.6093592833 -0.3643403915 1
73.3881450891 2.3748975992 10.5875398185 -0.4499116389 1
77.1881769896 2.3748975992 10.6770858199 -0.329272271 1
80.98820889 2.3748975992 10.693330877 -0.6183235547 1
84.7882407904 2.3748975992 10.4938287405 -0.6551250266 1
88.5882726908 2.3748975992 10.307495041 -0.5408748359 1
92.3883045912 2.3748975992 10.3160516939 -0.6871668604 1
96.1883364916 2.3748975992 0 -0 0
99.988368392 2.3748975992 0 -0 0
103.7884002924 2.3748975992 10.1336691547 -0.6943063176 1
107.5884321928 2.3748975992 10.0368846025 -0.5673391162 1
111.3884640932 2.3748975992 10.075984102 -0.3906316512 1
115.1884959936 2.3748975992 9.83848036 -0.3952104042 1
118.988527894 2.3748975992 9.9205581651 -0.3133999945 1
122.7885597944 2.3748975992 10.0929180955 -0.3411587831 1
126.5885916948 2.3748975992 10.0821876753 -0.2363618063 1
130.3886235952 2.3748975992 9.9443248976 -0.1996090947 1
134.1886554956 2.3748975992 9.7620870666 -0.2027580688 1
137.988687396 2.3748975992 9.8223170944 -0.0444442616 1
141.7887192965 2.3748975992 10.1534689978 0.0898558655 1
145.5887511969 2.3748975992 9.9986093101 0.0339450598 1
149.3887830973 2.3748975992 10.0428050513 0.1828717155 1
153.1888149977 2.3748975992 9.9036430466 -0.2064229587 1
156.9888468981 2.3748975992 10.1437137844 0.0362147749 1
160.7888787985 2.3748975992 10.0597610656 0.0601450905 1
164.5889106989 2.3748975992 0 -0 0
-25.4126843214 -1.4251343012 9.7202884465 0.4108152853 1
-21.612652421 -1.4251343012 9.7412302252 0.4407808724 1
-17.8126205206 -1.4251343012 9.6154694489 0.4985854666 1
-14.0125886202 -1.4251343012 9.7091364853 0.5667241067 1
-10.2125567198 -1.4251343012 9.9621302856 0.8465738428 1
-6.4125248194 -1.4251343012 9.9405436121 0.9763078002 1
-2.612492919 -1.4251343012 9.9128917817 1.0518658763 1
1.1875389814 -1.4251343012 0 -0 0
4.9875708818 -1.4251343012 0 -0 0
8.7876027822 -1.4251343012 0 -0 0
12.5876346827 -1.4251343012 10.8789567651 1.2005723239 1
16.3876665831 -1.4251343012 0 -0 0
20.1876984835 -1.4251343012 0 -0 0
23.9877303839 -1.4251343012 11.0307303953 0.8107176923 1
27.7877622843 -1.4251343012 11.5799888635 0.2797034551 1
31.5877941847 -1.4251343012 11.4313579158 0.0935522137 1
35.3878260851 -1.4251343012 11.4463949749 0.104554748 1
39.1878579855 -1.4251343012 11.4560935634 -0.160020419 1
42.9878898859 -1.4251343012 11.1795154887 -0.1041646653 1
46.7879217863 -1.4251343012 11.2223239196 -0.0485291196 1
50.5879536867 -1.4251343012 11.1253506177 -0.3734727309 1
54.3879855871 -1.4251343012 11.0604867848 -0.4130346671 1
58.1880174875 -1.4251343012 10.9928168731 -0.4118361066 1
61.9880493879 -1.4251343012 10.7436389625 -0.6025204865 1
65.7880812883 -1.4251343012 10.9040038497 -0.4629605345 1
69.5881131887 -1.4251343012 10.4598978369 -0.4137629264 1
73.3881450891 -1.4251343012 10.8734704406 -0.5882022492 1
77.1881769896 -1.4251343012 10.5648080635 -0.3962831316 1
80.98820889 -1.4251343012 10.4861560654 -0.388857404 1
84.7882407904 -1.4251343012 10.3278013624 -0.6704986893 1
88.5882726908 -1.4251343012 10.4209996705 -0.487240037 1
92.3883045912 -1.4251343012 10.4677466784 -0.5602185339 1
96.1883364916 -1.4251343012 10.1660617483 -0.7202452445 1
99.988368392 -1.4251343012 0 -0 0
103.7884002924 -1.4251343012 10.0674085741 -0.7601249094 1
107.5884321928 -1.4251343012 10.060066211 -0.6435530974 1
111.3884640932 -1.4251343012 9.6646733487 -0.6866352154 1
115.1884959936 -1.4251343012 9.8905910052 -0.4543346734 1
118.988527894 -1.4251343012 9.7094919639 -0.3238913317 1
122.7885597944 -1.4251343012 9.981593525 -0.1875904578 1
126.5885916948 -1.4251343012 10.0920215344 -0.3102305725 1