TITLE = "B00015"
VARIABLES = "x", "y", "Vx", "Vy", "isValid"
ZONE T="Frame 0", I=51, J=39, F=POINT
-25.4126843214 36.5751847029 10.2588227862 0.2477324025 1
-21.612652421 36.5751847029 10.0550423232 0.2464253109 1
-17.8126205206 36.5751847029 10.1540446844 0.3750047493 1
-14.0125886202 36.5751847029 10.2181598101 0.2936284639 1
-10.2125567198 36.5751847029 10.3579918763 0.2863789027 1
-6.4125248194 36.5751847029 0 -0 0
-2.612492919 36.5751847029 0 -0 0
1.1875389814 36.5751847029 0 -0 0
4.9875708818 36.5751847029 0 -0 0
8.7876027822 36.5751847029 0 -0 0
12.5876346827 36.5751847029 0 -0 0
16.3876665831 36.5751847029 10.3520745733 0.3319179125 1
20.1876984835 36.5751847029 10.4993842732 0.2804851934 1
23.9877303839 36.5751847029 10.5745884436 0.5099324692 1
27.7877622843 36.5751847029 10.5484623399 0.1756032793 1
31.5877941847 36.5751847029 10.5963387001 0.0119006683 1
35.3878260851 36.5751847029 10.5816948696 0.2113304508 1
39.1878579855 36.5751847029 10.5766552527 0.0622858266 1
42.9878898859 36.5751847029 10.6945357293 0.19604959 1
46.7879217863 36.5751847029 10.5716187817 0.1720752329 1
50.5879536867 36.5751847029 10.5226759856 0.0784852692 1
54.3879855871 36.5751847029 10.444656299 -0.1145112945 1
58.1880174875 36.5751847029 10.527835144 -0.0410687879 1
61.9880493879 36.5751847029 10.4784047445 -0.0839401354 1
65.7880812883 36.5751847029 10.3737965174 0.0279679861 1
69.5881131887 36.5751847029 10.4790653685 -0.0843601035 1
73.3881450891 36.5751847029 10.3835894808 -0.1239959667 1
77.1881769896 36.5751847029 10.2381484029 -0.1476871993 1
80.98820889 36.5751847029 10.370342398 -0.2669659965 1
84.7882407904 36.5751847029 10.4578310277 -0.2466643938 1
88.5882726908 36.5751847029 0 -0 0
92.3883045912 36.5751847029 0 -0 0
96.1883364916 36.5751847029 0 -0 0
99.988368392 36.5751847029 0 -0 0
103.7884002924 36.5751847029 10.3924575707 -0.2665947887 1
107.5884321928 36.5751847029 10.2538869817 -0.1374380908 1
111.3884640932 36.5751847029 10.1407378308 -0.250691054 1
115.1884959936 36.5751847029 10.3046134623 -0.1187361418 1
118.988527894 36.5751847029 10.2305795401 -0.1471005023 1
122.7885597944 36.5751847029 10.0968944224 -0.09530444 1
126.5885916948 36.5751847029 10.1493196503 -0.1864013348 1
130.3886235952 36.5751847029 10.1379600645 -0.1499663519 1
134.1886554956 36.5751847029 10.0921284926 -0.128917615 1
137.988687396 36.5751847029 10.0596729824 0.0184015224 1
141.7887192965 36.5751847029 10.2060766838 -0.0820872426 1
145.5887511969 36.5751847029 10.2356852194 -0.0260411663 1
149.3887830973 36.5751847029 10.0501065187 -0.1833420168 1
153.1888149977 36.5751847029 10.0419273652 -0.1226511251 1
156.9888468981 36.5751847029 10.0774594954 -0.1359658432 1
160.7888787985 36.5751847029 10.2593103896 0.0538581527 1
164.5889106989 36.5751847029 0 -0 0
-25.4126843214 32.7751528025 10.0588645046 0.1854717425 1
-21.612652421 32.7751528025 9.881710332 0.3497594775 1
-17.8126205206 32.7751528025 10.214334483 0.3483753131 1
-14.0125886202 32.7751528025 10.0358779375 0.3354286569 1
-10.2125567198 32.7751528025 10.1620287965 0.3147338257 1
-6.4125248194 32.7751528025 0 -0 0
-2.612492919 32.7751528025 0 -0 0
1.1875389814 32.7751528025 0 -0 0
4.9875708818 32.7751528025 0 -0 0
8.7876027822 32.7751528025 0 -0 0
12.5876346827 32.7751528025 0 -0 0
16.3876665831 32.7751528025 10.5179037642 0.428276205 1
20.1876984835 32.7751528025 10.4893616644 0.4765080439 1
23.9877303839 32.7751528025 10.5365207758 0.1645567033 1
27.7877622843 32.7751528025 10.545712886 -0.0087485484 1
31.5877941847 32.7751528025 10.513656896 0.0948718886 1
35.3878260851 32.7751528025 10.5410507685 0.3076132434 1
39.1878579855 32.7751528025 10.582896576 0.2017812891 1
42.9878898859 32.7751528025 10.5337650302 0.1611513442 1
46.7879217863 32.7751528025 10.6938751053 0.1038422179 1
50.5879536867 32.7751528025 10.6347964506 -0.1420451563 1
54.3879855871 32.7751528025 10.5490506097 -0.2489828692 1
58.1880174875 32.7751528025 10.5896443776 0.0210377265 1
61.9880493879 32.7751528025 10.564266981 0.1058791417 1
65.7880812883 32.7751528025 10.449875228 0.0318231987 1
69.5881131887 32.7751528025 10.6018785037 -0.1574251107 1
73.3881450891 32.7751528025 10.6679125847 -0.0958156371 1
77.1881769896 32.7751528025 10.3975003334 -0.0803932141 1
80.98820889 32.7751528025 10.3015274048 -0.1872617188 1
84.7882407904 32.7751528025 10.3161303396 -0.2274811331 1
88.5882726908 32.7751528025 10.3271344469 -0.0566768148 1
92.3883045912 32.7751528025 0 -0 0
96.1883364916 32.7751528025 0 -0 0
99.988368392 32.7751528025 0 -0 0
103.7884002924 32.7751528025 10.2670396896 -0.235542318 1
107.5884321928 32.7751528025 10.1905362922 -0.1555659262 1
111.3884640932 32.7751528025 10.1385168761 -0.2111998989 1
115.1884959936 32.7751528025 10.1654168535 -0.1793578253 1
118.988527894 32.7751528025 9.9424940256 -0.1828198093 1
122.7885597944 32.7751528025 10.1533022689 -0.0018088512 1
126.5885916948 32.7751528025 10.2000964643 -0.1598379609 1
130.3886235952 32.7751528025 10.0817566968 -0.1211568567 1
134.1886554956 32.7751528025 10.2780626718 -0.1513914121 1
137.988687396 32.7751528025 10.2166372293 -0.0579288545 1
141.7887192965 32.7751528025 10.2717521404 -0.2426424524 1
145.5887511969 32.7751528025 10.1664927268 -0.1575745375 1
149.3887830973 32.7751528025 10.1585841146 -0.0761101689 1
153.1888149977 32.7751528025 10.1825742009 -0.0395698008 1
156.9888468981 32.7751528025 10.0900302251 -0.130381998 1
160.7888787985 32.7751528025 10.0879602701 0.0363673476 1
164.5889106989 32.7751528025 0 -0 0
-25.4126843214 28.9751209021 10.2082441595 0.4906202295 1
-21.612652421 28.9751209021 10.1466205297 0.3841811303 1
-17.8126205206 28.9751209021 10.1519527086 0.359531993 1
-14.0125886202 28.9751209021 10.1947233896 0.3304598211 1
-10.2125567198 28.9751209021 10.1804727876 0.094407879 1
-6.4125248194 28.9751209021 0 -0 0
-2.612492919 28.9751209021 0 -0 0
1.1875389814 28.9751209021 0 -0 0
4.9875708818 28.9751209021 0 -0 0
8.7876027822 28.9751209021 0 -0 0
12.5876346827 28.9751209021 0 -0 0
16.3876665831 28.9751209021 10.4497210825 0.289486981 1
20.1876984835 28.9751209021 10.5916986035 0.47198277 1
23.9877303839 28.9751209021 10.7537339254 0.3209421177 1
27.7877622843 28.9751209021 10.6758526552 0.3955155495 1
31.5877941847 28.9751209021 10.518602138 0.3675286884 1
35.3878260851 28.9751209021 10.7126557 0.0954397106 1
39.1878579855 28.9751209021 10.6350040753 -0.0928632773 1
42.9878898859 28.9751209021 10.6881811562 -0.007564144 1
46.7879217863 28.9751209021 10.6523124224 -0.1046302479 1
50.5879536867 28.9751209021 10.4308586962 0.0130158644 1
54.3879855871 28.9751209021 10.7065181891 -0.1249114027 1
58.1880174875 28.9751209021 10.5311382636 0.0168978165 1
61.9880493879 28.9751209021 10.5777468551 -0.0621379727 1
65.7880812883 28.9751209021 10.6737669711 -0.0562033677 1
69.5881131887 28.9751209021 10.5790366447 -0.0949127844 1
73.3881450891 28.9751209021 10.4536785344 -0.0040502539 1
77.1881769896 28.9751209021 10.4094576266 -0.1841489217 1
80.98820889 28.9751209021 10.3737241634 -0.0301795034 1
84.7882407904 28.9751209021 10.2439870601 -0.2832629598 1
88.5882726908 28.9751209021 10.2814035415 -0.2305200032 1
92.3883045912 28.9751209021 0 -0 0
96.1883364916 28.9751209021 0 -0 0
99.988368392 28.9751209021 0 -0 0
103.7884002924 28.9751209021 10.1199690727 -0.1227753853 1
107.5884321928 28.9751209021 10.2550100424 -0.2319623654 1
111.3884640932 28.9751209021 10.2591436607 -0.2987593098 1
115.1884959936 28.9751209021 10.2534811698 -0.208615601 1
118.988527894 28.9751209021 10.1192423863 -0.1385485682 1
122.7885597944 28.9751209021 10.2103487186 -0.2198273329 1
126.5885916948 28.9751209021 10.1534060812 -0.169343081 1
130.3886235952 28.9751209021 10.1517450839 -0.174654812 1
134.1886554956 28.9751209021 10.1128626466 -0.0637769492 1
137.988687396 28.9751209021 10.1496405248 -0.1542745637 1
141.7887192965 28.9751209021 10.0777017242 -0.202827277 1
145.5887511969 28.9751209021 10.1095909852 -0.2395501032 1
149.3887830973 28.9751209021 10.1880951295 -0.094499108 1
153.1888149977 28.9751209021 10.2789466496 -0.0291523905 1
156.9888468981 28.9751209021 10.2302586656 -0.0169874726 1
160.7888787985 28.9751209021 10.076698205 0.0299388475 1
164.5889106989 28.9751209021 0 -0 0
-25.4126843214 25.1750890017 10.1512197306 0.4041288273 1
-21.612652421 25.1750890017 10.1399639571 0.3559441759 1
-17.8126205206 25.1750890017 10.1492944837 0.4333362698 1
-14.0125886202 25.1750890017 10.0155275745 0.2818457641 1
-10.2125567198 25.1750890017 10.1369880036 0.3807568963 1
-6.4125248194 25.1750890017 10.3581177094 0.5204694209 1
-2.612492919 25.1750890017 0 -0 0
1.1875389814 25.1750890017 0 -0 0
4.9875708818 25.1750890017 0 -0 0
8.7876027822 25.1750890017 0 -0 0
12.5876346827 25.1750890017 0 -0 0
16.3876665831 25.1750890017 10.6152765863 0.4462624781 1
20.1876984835 25.1750890017 10.5363540469 0.5552418336 1
23.9877303839 25.1750890017 10.4060664237 0.2640293658 1
27.7877622843 25.1750890017 10.8141778696 0.3757503106 1
31.5877941847 25.1750890017 10.6550083972 0.203890567 1
35.3878260851 25.1750890017 10.8146717646 0.0063183961 1
39.1878579855 25.1750890017 10.8420845121 0.1386759742 1
42.9878898859 25.1750890017 10.7794479256 0.0965124381 1
46.7879217863 25.1750890017 10.8117776026 -0.1496989565 1
50.5879536867 25.1750890017 10.7794479256 -0.0486942756 1
54.3879855871 25.1750890017 10.721228082 -0.0712451455 1
58.1880174875 25.1750890017 10.6248807999 -0.1689781649 1
61.9880493879 25.1750890017 10.5310187222 -0.1285652822 1
65.7880812883 25.1750890017 10.5602214459 -0.1881724361 1
69.5881131887 25.1750890017 10.5364169635 -0.1496093004 1
73.3881450891 25.1750890017 10.3747371201 -0.1880780612 1
77.1881769896 25.1750890017 10.607276745 -0.0761683667 1
80.98820889 25.1750890017 10.3564409829 -0.3226707504 1
84.7882407904 25.1750890017 10.4733305235 -0.3202767751 1
88.5882726908 25.1750890017 10.3783894267 -0.0854517059 1
92.3883045912 25.1750890017 0 -0 0
96.1883364916 25.1750890017 0 -0 0
99.988368392 25.1750890017 0 -0 0
103.7884002924 25.1750890017 10.1901210429 -0.261992442 1
107.5884321928 25.1750890017 10.2535126281 -0.240633841 1
111.3884640932 25.1750890017 10.2271883372 -0.2121609495 1
115.1884959936 25.1750890017 10.1213532371 -0.2808123596 1
118.988527894 25.1750890017 10.1858773205 -0.2187577513 1
122.7885597944 25.1750890017 10.1460951764 -0.0854548517 1
126.5885916948 25.1750890017 10.2021443985 -0.1033955103 1
130.3886235952 25.1750890017 10.2022639399 -0.1269719202 1
134.1886554956 25.1750890017 10.1065269485 -0.2057135744 1
137.988687396 25.1750890017 10.2255871106 -0.0907036662 1
141.7887192965 25.1750890017 10.0159900112 0.0128302606 1
145.5887511969 25.1750890017 10.1127179385 0.1069896191 1
149.3887830973 25.1750890017 10.0020980336 -0.1803990944 1
153.1888149977 25.1750890017 10.0694502167 -0.0747417336 1
156.9888468981 25.1750890017 10.0015443679 -0.1412980221 1
160.7888787985 25.1750890017 10.1707395949 0.075503024 1
164.5889106989 25.1750890017 0 -0 0
-25.4126843214 21.3750571012 9.9711556669 0.4754400352 1
-21.612652421 21.3750571012 9.9567351901 0.5047481442 1
-17.8126205206 21.3750571012 10.1795479141 0.3379264445 1
-14.0125886202 21.3750571012 10.1069359062 0.4079242691 1
-10.2125567198 21.3750571012 10.2061144337 0.5549083758 1
-6.4125248194 21.3750571012 10.2386737562 0.4672593088 1
-2.612492919 21.3750571012 0 -0 0
1.1875389814 21.3750571012 0 -0 0
4.9875708818 21.3750571012 0 -0 0
8.7876027822 21.3750571012 0 -0 0
12.5876346827 21.3750571012 0 -0 0
16.3876665831 21.3750571012 10.6940890216 0.5790447431 1
20.1876984835 21.3750571012 10.6720493489 0.4530260089 1
23.9877303839 21.3750571012 10.7340724988 0.4789916753 1
27.7877622843 21.3750571012 10.7557535472 0.3682003228 1
31.5877941847 21.3750571012 10.9153634356 0.1831925899 1
35.3878260851 21.3750571012 10.7913202815 0.1380593919 1
39.1878579855 21.3750571012 10.6932018981 0.005349481 1
42.9878898859 21.3750571012 10.7978919167 0.1231670409 1
46.7879217863 21.3750571012 10.7052724411 0.0615009425 1
50.5879536867 21.3750571012 10.7944661097 -0.3751290095 1
54.3879855871 21.3750571012 10.7331318962 0.0737885476 1
58.1880174875 21.3750571012 10.6818674789 0.0921884971 1
61.9880493879 21.3750571012 10.6883353018 0.1033357396 1
65.7880812883 21.3750571012 10.4458171096 -0.1657521181 1
69.5881131887 21.3750571012 10.6438595818 -0.1789520134 1
73.3881450891 21.3750571012 10.5040338074 -0.3504751534 1
77.1881769896 21.3750571012 10.499991418 -0.1811462287 1
80.98820889 21.3750571012 10.408661732 -0.14336955 1
84.7882407904 21.3750571012 10.4164979902 -0.4241221388 1
88.5882726908 21.3750571012 10.3604298932 -0.2467823624 1
92.3883045912 21.3750571012 0 -0 0
96.1883364916 21.3750571012 0 -0 0
99.988368392 21.3750571012 0 -0 0
103.7884002924 21.3750571012 10.2035411462 -0.2674992144 1
107.5884321928 21.3750571012 10.2229855107 -0.2201497803 1
111.3884640932 21.3750571012 10.261959177 -0.2207506335 1
115.1884959936 21.3750571012 10.2545444598 -0.2957644813 1
118.988527894 21.3750571012 10.087029105 -0.1868040008 1
122.7885597944 21.3750571012 10.1519243961 -0.2863741839 1
126.5885916948 21.3750571012 10.0482473342 -0.19088414 1
130.3886235952 21.3750571012 10.1048659512 -0.0810758588 1
134.1886554956 21.3750571012 9.9437492111 -0.1500685913 1
137.988687396 21.3750571012 10.1792522062 -0.2460509573 1
141.7887192965 21.3750571012 10.1886550869 -0.2661449353 1
145.5887511969 21.3750571012 10.2032580217 -0.1386287868 1
149.3887830973 21.3750571012 9.9648042396 -0.0797656213 1
153.1888149977 21.3750571012 10.0211240029 0.0168396187 1
156.9888468981 21.3750571012 9.9863248507 -0.1877446034 1
160.7888787985 21.3750571012 10.1165967448 0.0185572409 1
164.5889106989 21.3750571012 0 -0 0
-25.4126843214 17.5750252008 10.0580906308 0.2795493095 1
-21.612652421 17.5750252008 10.0868309178 0.3909902756 1
-17.8126205206 17.5750252008 10.0632938308 0.3807285838 1
-14.0125886202 17.5750252008 10.1426882444 0.4413329652 1
-10.2125567198 17.5750252008 10.2085241382 0.5432404988 1
-6.4125248194 17.5750252008 10.3097254333 0.6360267033 1
-2.612492919 17.5750252008 0 -0 0
1.1875389814 17.5750252008 0 -0 0
4.9875708818 17.5750252008 0 -0 0
8.7876027822 17.5750252008 0 -0 0
12.5876346827 17.5750252008 0 -0 0
16.3876665831 17.5750252008 10.7272963847 0.4423176095 1
20.1876984835 17.5750252008 10.7783689065 0.7166857398 1
23.9877303839 17.5750252008 10.6547252726 0.143662112 1
27.7877622843 17.5750252008 10.8796519932 0.2990235594 1
31.5877941847 17.5750252008 11.0303906459 -0.0448579381 1
35.3878260851 17.5750252008 10.7754590154 -0.0778073432 1
39.1878579855 17.5750252008 10.8838170698 -0.1704881625 1
42.9878898859 17.5750252008 10.7667765294 0.1939827809 1
46.7879217863 17.5750252008 10.8222909607 -0.0289337554 1
50.5879536867 17.5750252008 10.844192217 -0.284632968 1
54.3879855871 17.5750252008 10.8386744343 -0.1913355664 1
58.1880174875 17.5750252008 10.8244364156 -0.1085892728 1
61.9880493879 17.5750252008 10.5624990256 0.1268492329 1
65.7880812883 17.5750252008 10.771803563 0.0602614861 1
69.5881131887 17.5750252008 10.659022474 -0.162052624 1
73.3881450891 17.5750252008 10.5737956948 -0.0816232329 1
77.1881769896 17.5750252008 10.5934980172 -0.0394062177 1
80.98820889 17.5750252008 10.5220782783 -0.2840321148 1
84.7882407904 17.5750252008 10.4561008222 -0.2793605598 1
88.5882726908 17.5750252008 10.4071737553 -0.2994183608 1
92.3883045912 17.5750252008 10.2715099116 -0.4037009947 1
96.1883364916 17.5750252008 0 -0 0
99.988368392 17.5750252008 0 -0 0
103.7884002924 17.5750252008 10.2069134741 -0.3000270786 1
107.5884321928 17.5750252008 10.2228093443 -0.2464945191 1
111.3884640932 17.5750252008 10.1490428174 -0.2383310947 1
115.1884959936 17.5750252008 10.1063885321 -0.2836687716 1
118.988527894 17.5750252008 10.1419143706 -0.4192398134 1
122.7885597944 17.5750252008 10.1022989553 -0.26296293 1
126.5885916948 17.5750252008 10.0945822386 -0.3230325206 1
130.3886235952 17.5750252008 9.9491852023 -0.1622712591 1
134.1886554956 17.5750252008 10.135808318 -0.0847344571 1
137.988687396 17.5750252008 10.0139703895 -0.138259152 1
141.7887192965 17.5750252008 10.1757980868 -0.135987864 1
145.5887511969 17.5750252008 10.0677263028 -0.0830073974 1
149.3887830973 17.5750252008 10.1577661992 0.0385772919 1
153.1888149977 17.5750252008 10.216970687 -0.0662055286 1
156.9888468981 17.5750252008 10.1219918402 -0.1333721078 1
160.7888787985 17.5750252008 10.1305956805 -0.0386150419 1
164.5889106989 17.5750252008 0 -0 0
-25.4126843214 13.7749933004 9.9114195341 0.4332560512 1
-21.612652421 13.7749933004 10.0786769309 0.4162072349 1
-17.8126205206 13.7749933004 10.0386557038 0.5416030952 1
-14.0125886202 13.7749933004 9.945985895 0.4717609891 1
-10.2125567198 13.7749933004 10.1020221225 0.6292867662 1
-6.4125248194 13.7749933004 10.0563446961 0.4823828782 1
-2.612492919 13.7749933004 0 -0 0
1.1875389814 13.7749933004 0 -0 0
4.9875708818 13.7749933004 0 -0 0
8.7876027822 13.7749933004 0 -0 0
12.5876346827 13.7749933004 0 -0 0
16.3876665831 13.7749933004 10.5497301087 0.6604226014 1
20.1876984835 13.7749933004 10.7272743639 0.5120700595 1
23.9877303839 13.7749933004 10.8623342086 0.5302372177 1
27.7877622843 13.7749933004 10.9058630342 0.3969201619 1
31.5877941847 13.7749933004 10.8815269068 0.2649794059 1
35.3878260851 13.7749933004 10.8897784143 0.1543453448 1
39.1878579855 13.7749933004 10.9605280919 0.0328487387 1
42.9878898859 13.7749933004 10.8466679839 0.1485523021 1
46.7879217863 13.7749933004 10.8511696641 -0.0122561469 1
50.5879536867 13.7749933004 10.7906753867 -0.1269137224 1
54.3879855871 13.7749933004 10.7156914243 -0.2190440217 1
58.1880174875 13.7749933004 10.8520630793 -0.312969016 1
61.9880493879 13.7749933004 10.7518936159 -0.2348848399 1
65.7880812883 13.7749933004 10.5525865207 -0.0377200537 1
69.5881131887 13.7749933004 10.628067524 -0.3499922688 1
73.3881450891 13.7749933004 10.4135597866 -0.6013313634 1
77.1881769896 13.7749933004 10.5563269105 -0.2088405277 1
80.98820889 13.7749933004 10.465519432 -0.3922501798 1
84.7882407904 13.7749933004 10.4453798395 -0.4574616267 1
88.5882726908 13.7749933004 10.4349136688 -0.3646549743 1
92.3883045912 13.7749933004 10.3507155755 -0.451063012 1
96.1883364916 13.7749933004 0 -0 0
99.988368392 13.7749933004 0 -0 0
103.7884002924 13.7749933004 10.2754799468 -0.4323783651 1
107.5884321928 13.7749933004 10.2229918023 -0.4160562352 1
111.3884640932 13.7749933004 10.133628259 -0.3424627289 1
115.1884959936 13.7749933004 10.1097042351 -0.3178812269 1
118.988527894 13.7749933004 9.9214106846 -0.294944993 1
122.7885597944 13.7749933004 10.0464038788 -0.2247253875 1
126.5885916948 13.7749933004 10.1247758983 -0.342643614 1
130.3886235952 13.7749933004 9.9898607617 -0.2173106703 1
134.1886554956 13.7749933004 10.1317816578 -0.2777955103 1
137.988687396 13.7749933004 10.1058757621 -0.1910194106 1
141.7887192965 13.7749933004 10.1892244818 -0.2714959892 1
145.5887511969 13.7749933004 10.0187646317 -0.0810758588 1
149.3887830973 13.7749933004 9.9970678542 -0.1145175861 1
153.1888149977 13.7749933004 9.9488265779 -0.0663958512 1
156.9888468981 13.7749933004 10.0504085182 -0.069788627 1
160.7888787985 13.7749933004 9.9553856298 -0.176762517 1
164.5889106989 13.7749933004 0 -0 0
-25.4126843214 9.9749614 9.954778485 0.5131490786 1
-21.612652421 9.9749614 9.8873130521 0.4453533337 1
-17.8126205206 9.9749614 9.8893798613 0.5035385732 1
-14.0125886202 9.9749614 10.0634007889 0.5548061364 1
-10.2125567198 9.9749614 9.9689284205 0.8244335036 1
-6.4125248194 9.9749614 10.1731870493 0.5843470366 1
-2.612492919 9.9749614 0 -0 0
1.1875389814 9.9749614 0 -0 0
4.9875708818 9.9749614 0 -0 0
8.7876027822 9.9749614 0 -0 0
12.5876346827 9.9749614 10.8729230665 0.626140938 1
16.3876665831 9.9749614 10.720734187 0.7836887359 1
20.1876984835 9.9749614 10.8500245826 0.5871767092 1
23.9877303839 9.9749614 10.9093140078 0.4248252314 1
27.7877622843 9.9749614 10.9227404028 0.3777290366 1
31.5877941847 9.9749614 10.8595690256 0.3632063204 1
35.3878260851 9.9749614 10.9966422003 -0.0510473552 1
39.1878579855 9.9749614 11.0120032797 0.1070541086 1
42.9878898859 9.9749614 10.9801549144 0.1194848489 1
46.7879217863 9.9749614 10.9537834361 -0.0919588517 1
50.5879536867 9.9749614 10.9802115393 -0.1358431559 1
54.3879855871 9.9749614 10.6898893409 -0.0114995752 1
58.1880174875 9.9749614 10.8834741745 -0.2497362951 1
61.9880493879 9.9749614 10.6905059233 -0.2558218999 1
65.7880812883 9.9749614 10.8082857333 -0.2536308305 1
69.5881131887 9.9749614 10.55300177 -0.3350826158 1
73.3881450891 9.9749614 10.6619732609 -0.4907476355 1
77.1881769896 9.9749614 10.5449515955 -0.6189039601 1
80.98820889 9.9749614 10.5233712137 -0.3096690422 1
84.7882407904 9.9749614 10.5868320071 -0.4489647446 1
88.5882726908 9.9749614 10.458595464 -0.5005217239 1
92.3883045912 9.9749614 10.5029705174 -0.6515560845 1
96.1883364916 9.9749614 0 -0 0
99.988368392 9.9749614 0 -0 0
103.7884002924 9.9749614 10.1379160229 -0.5830918512 1
107.5884321928 9.9749614 10.0144674303 -0.4669620281 1
111.3884640932 9.9749614 10.0844526716 -0.3546276467 1
115.1884959936 9.9749614 10.1702582832 -0.3135887442 1
118.988527894 9.9749614 10.1710384486 -0.3012618162 1
122.7885597944 9.9749614 10.0828860492 -0.2790742894 1
126.5885916948 9.9749614 9.9090727462 -0.2918117481 1
130.3886235952 9.9749614 10.1355597975 -0.260215049 1
134.1886554956 9.9749614 10.1260027713 -0.1558663528 1
137.988687396 9.9749614 10.0365133948 -0.0337783309 1
141.7887192965 9.9749614 9.9015951124 -0.0254670527 1
145.5887511969 9.9749614 10.0323829223 0.0771828963 1
149.3887830973 9.9749614 10.003903739 -0.0189614798 1
153.1888149977 9.9749614 10.0013430348 -0.1490053013 1
156.9888468981 9.9749614 10.0176195503 -0.2056600954 1
160.7888787985 9.9749614 9.9897978451 -0.1219401679 1
164.5889106989 9.9749614 0 -0 0
-25.4126843214 6.1749294996 9.9514030112 0.4695321697 1
-21.612652421 6.1749294996 10.0006792651 0.4935615789 1
-17.8126205206 6.1749294996 9.9815557751 0.4237131811 1
-14.0125886202 6.1749294996 9.7580761356 0.495795117 1
-10.2125567198 6.1749294996 9.8778881506 0.6750617132 1
-6.4125248194 6.1749294996 10.1099370264 0.7580187773 1
-2.612492919 6.1749294996 10.0292276565 1.0616682771 1
1.1875389814 6.1749294996 0 -0 0
4.9875708818 6.1749294996 0 -0 0
8.7876027822 6.1749294996 0 -0 0
12.5876346827 6.1749294996 10.7523654901 0.8868278612 1
16.3876665831 6.1749294996 11.0854552237 0.8564423061 1
20.1876984835 6.1749294996 11.095396041 0.3511373503 1
23.9877303839 6.1749294996 10.9940626211 0.4913107388 1
27.7877622843 6.1749294996 11.0749890531 0.4720629886 1
31.5877941847 6.1749294996 11.1732521446 0.2594254461 1
35.3878260851 6.1749294996 11.0919324841 0.1543925322 1
39.1878579855 6.1749294996 11.0635382382 0.0508145639 1
42.9878898859 6.1749294996 11.0120536129 -0.0947444826 1
46.7879217863 6.1749294996 11.0014741925 -0.0484268802 1
50.5879536867 6.1749294996 11.0482149088 -0.2963275845 1
54.3879855871 6.1749294996 10.7570150243 -0.3996696158 1
58.1880174875 6.1749294996 10.8295074907 -0.2635543457 1
61.9880493879 6.1749294996 10.8217844823 -0.4858700288 1
65.7880812883 6.1749294996 10.9244517334 -0.3818217591 1
69.5881131887 6.1749294996 10.74266061 -0.3685243431 1
73.3881450891 6.1749294996 10.5747771933 -0.4629841282 1
77.1881769896 6.1749294996 10.5751861509 -0.56728721 1
80.98820889 6.1749294996 10.5540587683 -0.4026156839 1
84.7882407904 6.1749294996 10.4482771473 -0.5023573147 1
88.5882726908 6.1749294996 10.4557799477 -0.4349579443 1
92.3883045912 6.1749294996 10.3679861726 -0.5717464215 1
96.1883364916 6.1749294996 0 -0 0
99.988368392 6.1749294996 0 -0 0
103.7884002924 6.1749294996 10.2008200048 -0.5459773694 1
107.5884321928 6.1749294996 10.1456610521 -0.4688337959 1
111.3884640932 6.1749294996 10.0342609818 -0.3797486583 1
115.1884959936 6.1749294996 9.9565055447 -0.2569748459 1
118.988527894 6.1749294996 10.071331422 -0.3183405178 1
122.7885597944 6.1749294996 9.9223292665 -0.3534007737 1
126.5885916948 6.1749294996 10.0507451218 -0.1873057604 1
130.3886235952 6.1749294996 10.074426917 -0.1853993885 1
134.1886554956 6.1749294996 9.942871525 -0.2549866825 1
137.988687396 6.1749294996 9.9591039988 -0.1707807245 1
141.7887192965 6.1749294996 10.0927828249 -0.0764420538 1
145.5887511969 6.1749294996 9.9875265571 -0.2321731359 1
149.3887830973 6.1749294996 9.7819655554 -0.0100414838 1
153.1888149977 6.1749294996 9.9167391296 -0.0427691081 1
156.9888468981 6.1749294996 10.0916094309 -0.185792617 1
160.7888787985 6.1749294996 10.1590937387 -0.105525236 1
164.5889106989 6.1749294996 0 -0 0
-25.4126843214 2.3748975992 9.8368791335 0.4096245893 1
-21.612652421 2.3748975992 9.5924388402 0.4220254443 1
-17.8126205206 2.3748975992 9.6302202376 0.5916422124 1
-14.0125886202 2.3748975992 9.7808204739 0.618539044 1
-10.2125567198 2.3748975992 9.8462065142 0.7954966023 1
-6.4125248194 2.3748975992 10.0106043532 0.9601146493 1
-2.612492919 2.3748975992 10.2230830314 0.9350361064 1
1.1875389814 2.3748975992 0 -0 0
4.9875708818 2.3748975992 0 -0 0
8.7876027822 2.3748975992 0 -0 0
12.5876346827 2.3748975992 10.8258111425 0.950760529 1
16.3876665831 2.3748975992 11.0801828155 0.8756255668 1
20.1876984835 2.3748975992 11.2835637583 0.7860701279 1
23.9877303839 2.3748975992 11.2270269329 0.4540845801 1
27.7877622843 2.3748975992 11.3622723814 0.4466588525 1
31.5877941847 2.3748975992 11.3311003692 0.1773193286 1
35.3878260851 2.3748975992 11.3664059997 -0.0174326073 1
39.1878579855 2.3748975992 11.3253906909 -0.0088696628 1
42.9878898859 2.3748975992 11.1980947504 -0.0304940862 1
46.7879217863 2.3748975992 11.1998910183 -0.246496092 1
50.5879536867 2.3748975992 10.9174963071 -0.118750298 1
54.3879855871 2.3748975992 11.0026098365 -0.3419562505 1
58.1880174875 2.3748975992 11.1919226353 -0.286080049 1
61.9880493879 2.3748975992 10.8569359673 -0.3638417777 1
65.7880812883 2.3748975992 10.8359595845 -0.361053001 1
69.5881131887 2.3748975992 10.7529820725 -0.5987911071 1
73.3881450891 2.3748975992 10.756360692 -0.3418838965 1
77.1881769896 2.3748975992 10.4655886402 -0.1581801094 1
80.98820889 2.3748975992 10.5080761967 -0.653652779 1
84.7882407904 2.3748975992 10.5797381644 -0.4120248563 1
88.5882726908 2.3748975992 10.5689857234 -0.4980522487 1
92.3883045912 2.3748975992 10.4387295585 -0.5201973068 1
96.1883364916 2.3748975992 0 -0 0
99.988368392 2.3748975992 0 -0 0
103.7884002924 2.3748975992 10.168411682 -0.5447772359 1
107.5884321928 2.3748975992 10.090546141 -0.4864236946 1
111.3884640932 2.3748975992 10.0320022771 -0.3851154413 1
115.1884959936 2.3748975992 9.9879764106 -0.4915136447 1
118.988527894 2.3748975992 9.9782998428 -0.3748380204 1
122.7885597944 2.3748975992 9.9333616862 -0.3892002993 1
126.5885916948 2.3748975992 9.8710931616 -0.4257375216 1
130.3886235952 2.3748975992 10.0511163296 -0.141098262 1
134.1886554956 2.3748975992 10.0316625276 -0.1516588075 1
137.988687396 2.3748975992 9.9903263443 -0.1557688321 1
141.7887192965 2.3748975992 10.0236060614 -0.1066215572 1
145.5887511969 2.3748975992 9.9210772268 -0.091604946 1
149.3887830973 2.3748975992 10.0342232318 -0.077720833 1
153.1888149977 2.3748975992 9.95629792 -0.1587353481 1
156.9888468981 2.3748975992 10.0811841561 0.1020852728 1
160.7888787985 2.3748975992 10.1820834517 -0.1629523309 1
164.5889106989 2.3748975992 0 -0 0
-25.4126843214 -1.4251343012 9.7550844529 0.4037041405 1
-21.612652421 -1.4251343012 9.6860492517 0.5383550275 1
-17.8126205206 -1.4251343012 9.8107750506 0.5199928279 1
-14.0125886202 -1.4251343012 9.4656934197 0.5761049666 1
-10.2125567198 -1.4251343012 9.6228810203 0.6541372366 1
-6.4125248194 -1.4251343012 9.712036939 0.9055785706 1
-2.612492919 -1.4251343012 10.0652096402 1.1906897045 1
1.1875389814 -1.4251343012 0 -0 0
4.9875708818 -1.4251343012 0 -0 0
8.7876027822 -1.4251343012 0 -0 0
12.5876346827 -1.4251343012 11.2721255268 1.2006100739 1
16.3876665831 -1.4251343012 0 -0 0
20.1876984835 -1.4251343012 0 -0 0
23.9877303839 -1.4251343012 11.2854103595 0.6862042369 1
27.7877622843 -1.4251343012 11.32954633 0.3427049576 1
31.5877941847 -1.4251343012 11.6124003321 0.2551895884 1
35.3878260851 -1.4251343012 11.3111715471 0.1540244703 1
39.1878579855 -1.4251343012 11.3397388136 -0.1491122595 1
42.9878898859 -1.4251343012 11.2874457104 -0.2080729456 1
46.7879217863 -1.4251343012 11.2501361873 -0.1861323664 1
50.5879536867 -1.4251343012 11.1929890711 -0.3228186043 1
54.3879855871 -1.4251343012 10.9084143009 -0.1719965872 1
58.1880174875 -1.4251343012 10.9388659185 -0.4093336002 1
61.9880493879 -1.4251343012 10.9100029442 -0.4707087095 1
65.7880812883 -1.4251343012 10.7259027828 -0.5464744102 1
69.5881131887 -1.4251343012 11.0620093657 -0.5053867473 1
73.3881450891 -1.4251343012 10.7093903303 -0.2729509347 1
77.1881769896 -1.4251343012 10.6018250246 -0.4936622454 1
80.98820889 -1.4251343012 10.4850739004 -0.6771851473 1
84.7882407904 -1.4251343012 10.5504945449 -0.8282399557 1
88.5882726908 -1.4251343012 10.4356529385 -0.8017001756 1
92.3883045912 -1.4251343012 10.2177634358 -0.6917692071 1
96.1883364916 -1.4251343012 10.202867939 -0.6821602747 1
99.988368392 -1.4251343012 0 -0 0
103.7884002924 -1.4251343012 10.2290821258 -0.7287468454 1
107.5884321928 -1.4251343012 9.9377752832 -0.568899447 1
111.3884640932 -1.4251343012 9.970126981 -0.4913752283 1
115.1884959936 -1.4251343012 10.0127718289 -0.4899061265 1
118.988527894 -1.4251343012 9.8548323753 -0.4770664284 1
122.7885597944 -1.4251343012 9.9937175471 -0.3402748053 1